       N       E                     dE             d eps       ncg     rms          rms(c)
DAV:   1     0.374919546873E+04    0.37492E+04   -0.24284E+05 20736   0.147E+03
DAV:   2    -0.492566808578E+03   -0.42418E+04   -0.41484E+04 28272   0.464E+02
DAV:   3    -0.789015549668E+03   -0.29645E+03   -0.29381E+03 27648   0.120E+02
DAV:   4    -0.810013731627E+03   -0.20998E+02   -0.20965E+02 38016   0.323E+01
DAV:   5    -0.810504788289E+03   -0.49106E+00   -0.49096E+00 33360   0.324E+00    0.106E+02
RMM:   6    -0.690110047191E+03    0.12039E+03   -0.68865E+02 23750   0.404E+01    0.494E+01
RMM:   7    -0.680231634871E+03    0.98784E+01   -0.33674E+01 24676   0.185E+01    0.221E+01
RMM:   8    -0.680104106258E+03    0.12753E+00   -0.12189E+01 25144   0.564E+00    0.860E+00
RMM:   9    -0.680028105204E+03    0.76001E-01   -0.21197E+00 32781   0.277E+00    0.275E+00
RMM:  10    -0.680024951944E+03    0.31533E-02   -0.42607E-01 32547   0.120E+00    0.602E-01
RMM:  11    -0.680037427743E+03   -0.12476E-01   -0.12908E-01 34263   0.538E-01    0.354E-01
RMM:  12    -0.680040723094E+03   -0.32954E-02   -0.46573E-02 34189   0.295E-01    0.268E-01
RMM:  13    -0.680041678405E+03   -0.95531E-03   -0.16817E-02 34382   0.215E-01    0.874E-02
RMM:  14    -0.680042280017E+03   -0.60161E-03   -0.80479E-03 34346   0.116E-01    0.853E-02
RMM:  15    -0.680042485492E+03   -0.20548E-03   -0.24603E-03 35027   0.666E-02    0.813E-02
RMM:  16    -0.680042581898E+03   -0.96406E-04   -0.10211E-03 33400   0.361E-02    0.101E-01
RMM:  17    -0.680042622919E+03   -0.41020E-04   -0.43052E-04 34128   0.282E-02    0.135E-01
RMM:  18    -0.680042662714E+03   -0.39795E-04   -0.19530E-04 33356   0.184E-02    0.163E-01
RMM:  19    -0.680042700383E+03   -0.37670E-04   -0.11151E-04 33802   0.162E-02    0.192E-01
RMM:  20    -0.680042723428E+03   -0.23045E-04   -0.45678E-05 30570   0.112E-02    0.213E-01
RMM:  21    -0.680042703097E+03    0.20332E-04   -0.19918E-05 28806   0.759E-03    0.198E-01
RMM:  22    -0.680042713248E+03   -0.10151E-04   -0.51506E-06 18730   0.490E-03    0.206E-01
RMM:  23    -0.680042692723E+03    0.20525E-04   -0.33595E-06 19394   0.496E-03    0.193E-01
RMM:  24    -0.680042675748E+03    0.16975E-04   -0.51602E-06 18565   0.570E-03    0.180E-01
RMM:  25    -0.680042652153E+03    0.23595E-04   -0.11025E-05 20958   0.810E-03    0.158E-01
RMM:  26    -0.680042648632E+03    0.35210E-05   -0.17973E-06 12829   0.469E-03    0.154E-01
RMM:  27    -0.680042641901E+03    0.67310E-05   -0.28733E-06 14456   0.439E-03    0.146E-01
RMM:  28    -0.680042632901E+03    0.90003E-05   -0.42999E-06 16917   0.563E-03    0.135E-01
RMM:  29    -0.680042621582E+03    0.11318E-04   -0.10088E-05 22523   0.795E-03    0.116E-01
RMM:  30    -0.680042613958E+03    0.76240E-05   -0.99637E-06 24732   0.753E-03    0.996E-02
RMM:  31    -0.680042602816E+03    0.11142E-04   -0.39366E-05 32042   0.150E-02    0.545E-02
RMM:  32    -0.680042603232E+03   -0.41597E-06   -0.21629E-05 30901   0.102E-02    0.275E-02
RMM:  33    -0.680042605072E+03   -0.18399E-05   -0.91137E-06 21200   0.701E-03    0.132E-02
RMM:  34    -0.680042606266E+03   -0.11940E-05   -0.39240E-06 16339   0.535E-03    0.632E-03
RMM:  35    -0.680042606785E+03   -0.51969E-06   -0.20787E-06 14211   0.428E-03
   1 F= -.68004261E+03 E0= -.68004261E+03  d E =-.680043E+03
       N       E                     dE             d eps       ncg     rms          rms(c)
DAV:   1    -0.680290381398E+03   -0.24778E+00   -0.10124E+01 25920   0.779E+00    0.237E+00
RMM:   2    -0.680224443044E+03    0.65938E-01   -0.49773E-01 25879   0.165E+00    0.986E-01
RMM:   3    -0.680204422675E+03    0.20020E-01   -0.99016E-02 25329   0.877E-01    0.289E-01
RMM:   4    -0.680204607221E+03   -0.18455E-03   -0.17243E-02 28401   0.222E-01    0.213E-01
RMM:   5    -0.680204663289E+03   -0.56068E-04   -0.44251E-03 27370   0.143E-01    0.117E-01
RMM:   6    -0.680204738004E+03   -0.74715E-04   -0.11372E-03 33945   0.591E-02    0.619E-02
RMM:   7    -0.680204776042E+03   -0.38037E-04   -0.65088E-04 34003   0.367E-02    0.459E-02
RMM:   8    -0.680204797241E+03   -0.21199E-04   -0.12572E-04 33679   0.215E-02    0.243E-02
RMM:   9    -0.680204825028E+03   -0.27787E-04   -0.84843E-05 35223   0.161E-02    0.692E-03
RMM:  10    -0.680204827658E+03   -0.26297E-05   -0.29788E-05 30481   0.868E-03    0.392E-03
RMM:  11    -0.680204829386E+03   -0.17278E-05   -0.14282E-05 21696   0.540E-03    0.416E-03
RMM:  12    -0.680204829920E+03   -0.53478E-06   -0.56075E-06 19452   0.438E-03
   2 F= -.68020483E+03 E0= -.68020483E+03  d E =-.162223E+00
       N       E                     dE             d eps       ncg     rms          rms(c)
DAV:   1    -0.680377487608E+03   -0.17266E+00   -0.18033E+01 23184   0.105E+01    0.231E+00
RMM:   2    -0.680348770036E+03    0.28718E-01   -0.89874E-01 26038   0.224E+00    0.985E-01
RMM:   3    -0.680325696756E+03    0.23073E-01   -0.11834E-01 26270   0.960E-01    0.328E-01
RMM:   4    -0.680326155328E+03   -0.45857E-03   -0.22140E-02 31708   0.249E-01    0.230E-01
RMM:   5    -0.680326362315E+03   -0.20699E-03   -0.49099E-03 31542   0.145E-01    0.109E-01
RMM:   6    -0.680326479956E+03   -0.11764E-03   -0.18596E-03 34974   0.673E-02    0.546E-02
RMM:   7    -0.680326542082E+03   -0.62126E-04   -0.51891E-04 36119   0.350E-02    0.373E-02
RMM:   8    -0.681099585340E+03   -0.77304E+00   -0.77303E+00 36158   0.211E-02    0.285E+01
RMM:   9    -0.680017775250E+03    0.10818E+01   -0.61879E-05 31991   0.125E-02    0.963E-02
RMM:  10    -0.680017433267E+03    0.34198E-03   -0.98701E-04 25948   0.492E-02    0.562E-02
RMM:  11    -0.680017369153E+03    0.64114E-04   -0.23147E-04 24397   0.282E-02    0.347E-02
RMM:  12    -0.680017364053E+03    0.50993E-05   -0.56785E-05 24104   0.169E-02    0.143E-02
RMM:  13    -0.680017365489E+03   -0.14353E-05   -0.11361E-05 22183   0.681E-03    0.146E-02
RMM:  14    -0.680017364545E+03    0.94312E-06   -0.74992E-06 18233   0.515E-03
   3 F= -.68001736E+03 E0= -.68001736E+03  d E =0.187465E+00
       N       E                     dE             d eps       ncg     rms          rms(c)
DAV:   1    -0.680041119560E+03   -0.23754E-01   -0.65713E+00 23616   0.642E+00    0.870E-01
RMM:   2    -0.680077277402E+03   -0.36158E-01   -0.31612E-01 24467   0.142E+00    0.426E-01
RMM:   3    -0.680336863742E+03   -0.25959E+00   -0.14743E+00 26694   0.537E-01    0.183E-01
RMM:   4    -0.680360140856E+03   -0.23277E-01   -0.25651E-01 33338   0.152E-01    0.127E-01
RMM:   5    -0.680361656468E+03   -0.15156E-02   -0.20395E-02 34765   0.669E-02    0.819E-02
RMM:   6    -0.680362431974E+03   -0.77551E-03   -0.77922E-03 34837   0.366E-02    0.232E-02
RMM:   7    -0.680362438293E+03   -0.63191E-05   -0.32421E-04 36007   0.230E-02    0.110E-02
RMM:   8    -0.680362454470E+03   -0.16177E-04   -0.16604E-04 33890   0.117E-02    0.102E-02
RMM:   9    -0.680362459079E+03   -0.46089E-05   -0.46604E-05 29148   0.902E-03    0.432E-03
RMM:  10    -0.680362461540E+03   -0.24605E-05   -0.18387E-05 21065   0.513E-03    0.150E-03
RMM:  11    -0.680362462397E+03   -0.85692E-06   -0.89623E-06 20441   0.462E-03
   4 F= -.68036246E+03 E0= -.68036246E+03  d E =-.345098E+00
       N       E                     dE             d eps       ncg     rms          rms(c)
DAV:   1    -0.680367715695E+03   -0.52542E-02   -0.18782E+00 25920   0.351E+00    0.417E-01
RMM:   2    -0.680374130431E+03   -0.64147E-02   -0.93259E-02 23270   0.780E-01    0.210E-01
RMM:   3    -0.680373402609E+03    0.72782E-03   -0.71854E-03 26077   0.280E-01    0.916E-02
RMM:   4    -0.680373423702E+03   -0.21092E-04   -0.15529E-03 34036   0.691E-02    0.449E-02
RMM:   5    -0.680373440592E+03   -0.16890E-04   -0.21880E-04 34461   0.290E-02    0.275E-02
RMM:   6    -0.680373459836E+03   -0.19244E-04   -0.97769E-05 35997   0.152E-02    0.844E-03
RMM:   7    -0.680536451495E+03   -0.16299E+00   -0.16299E+00 33315   0.105E-02    0.193E+01
RMM:   8    -0.679961400480E+03    0.57505E+00   -0.10094E-05 23298   0.593E-03    0.778E-02
RMM:   9    -0.679961182417E+03    0.21806E-03   -0.62568E-04 25160   0.385E-02    0.438E-02
RMM:  10    -0.679961141239E+03    0.41177E-04   -0.12910E-04 24982   0.219E-02    0.311E-02
RMM:  11    -0.679961127963E+03    0.13276E-04   -0.39360E-05 22892   0.110E-02    0.168E-02
RMM:  12    -0.679961126231E+03    0.17323E-05   -0.12397E-05 20570   0.738E-03    0.111E-02
RMM:  13    -0.679961126018E+03    0.21279E-06   -0.12506E-06 12970   0.363E-03
   5 F= -.67996113E+03 E0= -.67996113E+03  d E =0.401336E+00
       N       E                     dE             d eps       ncg     rms          rms(c)
DAV:   1    -0.680317297840E+03   -0.35617E+00   -0.30342E-01 25920   0.140E+00    0.162E-01
RMM:   2    -0.680371952305E+03   -0.54654E-01   -0.55207E-01 22543   0.342E-01    0.855E-02
RMM:   3    -0.680373904535E+03   -0.19522E-02   -0.59985E-02 27574   0.115E-01    0.781E-02
RMM:   4    -0.680376487263E+03   -0.25827E-02   -0.28733E-02 34527   0.257E-02    0.474E-02
RMM:   5    -0.680376714532E+03   -0.22727E-03   -0.30616E-03 30664   0.178E-02    0.793E-03
RMM:   6    -0.680376861604E+03   -0.14707E-03   -0.20332E-03 29445   0.809E-03    0.427E-03
RMM:   7    -0.680376875833E+03   -0.14230E-04   -0.28098E-04 16375   0.420E-03    0.249E-03
RMM:   8    -0.680376887042E+03   -0.11208E-04   -0.12129E-04 17605   0.383E-03    0.999E-04
RMM:   9    -0.680376889786E+03   -0.27442E-05   -0.33254E-05 13671   0.307E-03    0.717E-04
RMM:  10    -0.680376891252E+03   -0.14663E-05   -0.15880E-05 13816   0.260E-03    0.655E-04
RMM:  11    -0.680376891678E+03   -0.42623E-06   -0.54260E-06 12544   0.257E-03
   6 F= -.68037689E+03 E0= -.68037689E+03  d E =-.415766E+00
       N       E                     dE             d eps       ncg     rms          rms(c)
DAV:   1    -0.680379368284E+03   -0.24770E-02   -0.22513E-01 25920   0.114E+00    0.932E-02
RMM:   2    -0.680379813247E+03   -0.44496E-03   -0.59697E-03 20989   0.218E-01    0.432E-02
RMM:   3    -0.680379804012E+03    0.92344E-05   -0.55559E-04 27402   0.702E-02    0.254E-02
RMM:   4    -0.680379797201E+03    0.68116E-05   -0.91089E-05 31782   0.165E-02    0.105E-02
RMM:   5    -0.680379796385E+03    0.81520E-06   -0.14602E-05 28955   0.811E-03    0.475E-03
RMM:   6    -0.680379795975E+03    0.41024E-06   -0.15555E-06 15152   0.360E-03
   7 F= -.68037980E+03 E0= -.68037980E+03  d E =-.290430E-02
       N       E                     dE             d eps       ncg     rms          rms(c)
DAV:   1    -0.680384096292E+03   -0.42999E-02   -0.18729E+00 22944   0.328E+00    0.340E-01
RMM:   2    -0.680386991777E+03   -0.28955E-02   -0.52352E-02 21453   0.635E-01    0.146E-01
RMM:   3    -0.680386720086E+03    0.27169E-03   -0.57440E-03 28326   0.207E-01    0.854E-02
RMM:   4    -0.680386649787E+03    0.70299E-04   -0.72870E-04 32029   0.469E-02    0.357E-02
RMM:   5    -0.680386641509E+03    0.82775E-05   -0.13118E-04 32427   0.237E-02    0.148E-02
RMM:   6    -0.680386642961E+03   -0.14519E-05   -0.49593E-05 35108   0.101E-02    0.690E-03
RMM:   7    -0.680386642889E+03    0.72228E-07   -0.13422E-05 22870   0.697E-03    0.378E-03
RMM:   8    -0.680386642099E+03    0.78975E-06   -0.66636E-06 20845   0.503E-03
   8 F= -.68038664E+03 E0= -.68038664E+03  d E =-.684612E-02
       N       E                     dE             d eps       ncg     rms          rms(c)
DAV:   1    -0.680389219060E+03   -0.25762E-02   -0.25052E+00 22464   0.378E+00    0.427E-01
RMM:   2    -0.680392456455E+03   -0.32374E-02   -0.71292E-02 21751   0.736E-01    0.186E-01
RMM:   3    -0.680391954662E+03    0.50179E-03   -0.84946E-03 28105   0.243E-01    0.100E-01
RMM:   4    -0.680391836545E+03    0.11812E-03   -0.10385E-03 31042   0.569E-02    0.398E-02
RMM:   5    -0.680391826166E+03    0.10379E-04   -0.17085E-04 32220   0.278E-02    0.180E-02
RMM:   6    -0.680391828160E+03   -0.19935E-05   -0.69946E-05 35629   0.117E-02    0.900E-03
RMM:   7    -0.680391827960E+03    0.19970E-06   -0.18001E-05 24655   0.793E-03    0.488E-03
RMM:   8    -0.680391826949E+03    0.10107E-05   -0.80546E-06 20532   0.515E-03    0.269E-03
RMM:   9    -0.680391826910E+03    0.38825E-07   -0.32709E-06 16418   0.445E-03
   9 F= -.68039183E+03 E0= -.68039183E+03  d E =-.518481E-02
       N       E                     dE             d eps       ncg     rms          rms(c)
DAV:   1    -0.680392964528E+03   -0.11376E-02   -0.40806E-01 25056   0.152E+00    0.179E-01
RMM:   2    -0.680393488354E+03   -0.52383E-03   -0.11870E-02 21860   0.299E-01    0.781E-02
RMM:   3    -0.680393396402E+03    0.91952E-04   -0.14384E-03 27785   0.999E-02    0.403E-02
RMM:   4    -0.680393372821E+03    0.23581E-04   -0.17597E-04 30274   0.236E-02    0.160E-02
RMM:   5    -0.680393368931E+03    0.38900E-05   -0.27852E-05 30987   0.114E-02    0.736E-03
RMM:   6    -0.680393367815E+03    0.11155E-05   -0.11389E-05 21000   0.484E-03    0.388E-03
RMM:   7    -0.680393367082E+03    0.73273E-06   -0.30966E-06 14671   0.399E-03
  10 F= -.68039337E+03 E0= -.68039337E+03  d E =-.154017E-02
       N       E                     dE             d eps       ncg     rms          rms(c)
DAV:   1    -0.680394239775E+03   -0.87196E-03   -0.58835E-01 23232   0.183E+00    0.215E-01
RMM:   2    -0.680395047618E+03   -0.80784E-03   -0.17423E-02 21746   0.362E-01    0.936E-02
RMM:   3    -0.680394920008E+03    0.12761E-03   -0.20873E-03 27382   0.121E-01    0.478E-02
RMM:   4    -0.680394884217E+03    0.35792E-04   -0.25363E-04 29919   0.285E-02    0.191E-02
RMM:   5    -0.680394879144E+03    0.50730E-05   -0.38048E-05 31197   0.134E-02    0.878E-03
RMM:   6    -0.680394878049E+03    0.10950E-05   -0.15567E-05 25815   0.562E-03    0.459E-03
RMM:   7    -0.680394877156E+03    0.89225E-06   -0.39387E-06 15521   0.431E-03
  11 F= -.68039488E+03 E0= -.68039488E+03  d E =-.151007E-02
       N       E                     dE             d eps       ncg     rms          rms(c)
DAV:   1    -0.680395413908E+03   -0.53586E-03   -0.17861E-01 25584   0.102E+00    0.117E-01
RMM:   2    -0.680395705140E+03   -0.29123E-03   -0.55263E-03 21489   0.204E-01    0.507E-02
RMM:   3    -0.680395673477E+03    0.31663E-04   -0.62586E-04 27155   0.684E-02    0.261E-02
RMM:   4    -0.680395662165E+03    0.11312E-04   -0.77432E-05 30641   0.159E-02    0.105E-02
RMM:   5    -0.680395659761E+03    0.24042E-05   -0.12083E-05 27200   0.744E-03    0.463E-03
RMM:   6    -0.680395658896E+03    0.86478E-06   -0.44015E-06 15487   0.376E-03
  12 F= -.68039566E+03 E0= -.68039566E+03  d E =-.781740E-03
       N       E                     dE             d eps       ncg     rms          rms(c)
DAV:   1    -0.680396003140E+03   -0.34338E-03   -0.41120E-01 23184   0.156E+00    0.171E-01
RMM:   2    -0.680396749521E+03   -0.74638E-03   -0.12850E-02 21230   0.314E-01    0.744E-02
RMM:   3    -0.680396698033E+03    0.51489E-04   -0.13963E-03 27010   0.105E-01    0.402E-02
RMM:   4    -0.680396673362E+03    0.24671E-04   -0.17238E-04 31516   0.240E-02    0.161E-02
RMM:   5    -0.680396670019E+03    0.33423E-05   -0.29809E-05 31838   0.109E-02    0.692E-03
RMM:   6    -0.680396669269E+03    0.75081E-06   -0.94002E-06 21556   0.488E-03
  13 F= -.68039667E+03 E0= -.68039667E+03  d E =-.101037E-02
       N       E                     dE             d eps       ncg     rms          rms(c)
DAV:   1    -0.680396883186E+03   -0.21317E-03   -0.27114E-01 23280   0.127E+00    0.139E-01
RMM:   2    -0.680397380719E+03   -0.49753E-03   -0.86267E-03 21186   0.258E-01    0.607E-02
RMM:   3    -0.680397347576E+03    0.33144E-04   -0.92429E-04 27250   0.860E-02    0.337E-02
RMM:   4    -0.680397332269E+03    0.15307E-04   -0.11693E-04 32229   0.199E-02    0.134E-02
RMM:   5    -0.680397329895E+03    0.23735E-05   -0.22913E-05 31922   0.911E-03    0.572E-03
RMM:   6    -0.680397329196E+03    0.69955E-06   -0.59513E-06 18652   0.427E-03
  14 F= -.68039733E+03 E0= -.68039733E+03  d E =-.659927E-03
       N       E                     dE             d eps       ncg     rms          rms(c)
DAV:   1    -0.680397375223E+03   -0.45328E-04   -0.24342E-01 22656   0.121E+00    0.130E-01
RMM:   2    -0.680397838023E+03   -0.46280E-03   -0.77564E-03 21079   0.245E-01    0.567E-02
RMM:   3    -0.680397813188E+03    0.24835E-04   -0.81053E-04 27548   0.819E-02    0.322E-02
RMM:   4    -0.680397801156E+03    0.12032E-04   -0.10586E-04 32470   0.188E-02    0.128E-02
RMM:   5    -0.680397799165E+03    0.19913E-05   -0.22169E-05 31861   0.888E-03    0.534E-03
RMM:   6    -0.680397798613E+03    0.55166E-06   -0.51673E-06 18420   0.416E-03
  15 F= -.68039780E+03 E0= -.68039780E+03  d E =-.469417E-03
       N       E                     dE             d eps       ncg     rms          rms(c)
DAV:   1    -0.680397853005E+03   -0.53841E-04   -0.87823E-02 25392   0.728E-01    0.740E-02
RMM:   2    -0.680398033530E+03   -0.18052E-03   -0.27438E-03 21093   0.147E-01    0.325E-02
RMM:   3    -0.680398026638E+03    0.68924E-05   -0.27130E-04 28212   0.479E-02    0.191E-02
RMM:   4    -0.680398023267E+03    0.33715E-05   -0.39686E-05 32245   0.112E-02    0.741E-03
RMM:   5    -0.680398022419E+03    0.84778E-06   -0.85923E-06 25326   0.572E-03
  16 F= -.68039802E+03 E0= -.68039802E+03  d E =-.223806E-03
       N       E                     dE             d eps       ncg     rms          rms(c)
DAV:   1    -0.680398031439E+03   -0.81728E-05   -0.71794E-02 25824   0.660E-01    0.638E-02
RMM:   2    -0.680398189645E+03   -0.15821E-03   -0.22329E-03 20977   0.134E-01    0.286E-02
RMM:   3    -0.680398186904E+03    0.27409E-05   -0.21563E-04 28177   0.431E-02    0.179E-02
RMM:   4    -0.680398184401E+03    0.25028E-05   -0.32658E-05 32216   0.101E-02    0.679E-03
RMM:   5    -0.680398183859E+03    0.54252E-06   -0.71945E-06 23178   0.523E-03
  17 F= -.68039818E+03 E0= -.68039818E+03  d E =-.161440E-03
       N       E                     dE             d eps       ncg     rms          rms(c)
DAV:   1    -0.680398237801E+03   -0.53400E-04   -0.13789E-02 25920   0.288E-01    0.233E-02
RMM:   2    -0.680398272046E+03   -0.34244E-04   -0.43190E-04 21567   0.580E-02    0.114E-02
RMM:   3    -0.680398271363E+03    0.68297E-06   -0.36821E-05 27112   0.187E-02    0.729E-03
RMM:   4    -0.680398271096E+03    0.26616E-06   -0.66826E-06 21259   0.464E-03
  18 F= -.68039827E+03 E0= -.68039827E+03  d E =-.872379E-04
       N       E                     dE             d eps       ncg     rms          rms(c)
DAV:   1    -0.680398320042E+03   -0.48679E-04   -0.32067E-02 25920   0.432E-01    0.319E-02
RMM:   2    -0.680398394293E+03   -0.74251E-04   -0.93705E-04 21570   0.848E-02    0.161E-02
RMM:   3    -0.680398392452E+03    0.18410E-05   -0.76543E-05 26610   0.278E-02    0.932E-03
RMM:   4    -0.680398392071E+03    0.38105E-06   -0.14879E-05 27757   0.687E-03    0.336E-03
RMM:   5    -0.680398392354E+03   -0.28303E-06   -0.23504E-06 14254   0.377E-03
  19 F= -.68039839E+03 E0= -.68039839E+03  d E =-.121257E-03
       N       E                     dE             d eps       ncg     rms          rms(c)
DAV:   1    -0.680398429929E+03   -0.37859E-04   -0.24822E-02 25824   0.372E-01    0.315E-02
RMM:   2    -0.680398481367E+03   -0.51438E-04   -0.69692E-04 22027   0.714E-02    0.137E-02
RMM:   3    -0.680398478047E+03    0.33205E-05   -0.56409E-05 27280   0.229E-02    0.885E-03
RMM:   4    -0.680398477751E+03    0.29615E-06   -0.93714E-06 25057   0.564E-03
  20 F= -.68039848E+03 E0= -.68039848E+03  d E =-.853970E-04
       N       E                     dE             d eps       ncg     rms          rms(c)
DAV:   1    -0.680398483035E+03   -0.49875E-05   -0.36715E-02 25728   0.446E-01    0.424E-02
RMM:   2    -0.680398550875E+03   -0.67841E-04   -0.99916E-04 21879   0.859E-02    0.172E-02
RMM:   3    -0.680398545552E+03    0.53229E-05   -0.90468E-05 28544   0.271E-02    0.121E-02
RMM:   4    -0.680398545037E+03    0.51540E-06   -0.12791E-05 28347   0.639E-03    0.525E-03
RMM:   5    -0.680398545860E+03   -0.82341E-06   -0.32640E-06 15346   0.404E-03
  21 F= -.68039855E+03 E0= -.68039855E+03  d E =-.681093E-04
       N       E                     dE             d eps       ncg     rms          rms(c)
DAV:   1    -0.680398558908E+03   -0.13871E-04   -0.16759E-02 25920   0.300E-01    0.304E-02
RMM:   2    -0.680398587890E+03   -0.28982E-04   -0.44933E-04 22008   0.573E-02    0.118E-02
RMM:   3    -0.680398584995E+03    0.28946E-05   -0.42043E-05 28545   0.183E-02    0.800E-03
RMM:   4    -0.680398584903E+03    0.92281E-07   -0.52801E-06 19292   0.432E-03
  22 F= -.68039858E+03 E0= -.68039858E+03  d E =-.390427E-04
       N       E                     dE             d eps       ncg     rms          rms(c)
DAV:   1    -0.680398564834E+03    0.20161E-04   -0.45150E-02 25056   0.494E-01    0.526E-02
RMM:   2    -0.680398635112E+03   -0.70278E-04   -0.12281E-03 21773   0.955E-02    0.212E-02
RMM:   3    -0.680398626304E+03    0.88083E-05   -0.12582E-04 28915   0.310E-02    0.136E-02
RMM:   4    -0.680398625586E+03    0.71779E-06   -0.15794E-05 29277   0.706E-03    0.617E-03
RMM:   5    -0.680398626673E+03   -0.10871E-05   -0.36387E-06 17174   0.430E-03    0.211E-03
RMM:   6    -0.680398627155E+03   -0.48211E-06   -0.93777E-07 12791   0.277E-03
  23 F= -.68039863E+03 E0= -.68039863E+03  d E =-.422523E-04
       N       E                     dE             d eps       ncg     rms          rms(c)
DAV:   1    -0.680398609384E+03    0.17289E-04   -0.16851E-02 25824   0.305E-01    0.300E-02
RMM:   2    -0.680398640248E+03   -0.30864E-04   -0.46413E-04 21858   0.589E-02    0.121E-02
RMM:   3    -0.680398637477E+03    0.27702E-05   -0.42412E-05 28255   0.186E-02    0.761E-03
RMM:   4    -0.680398637265E+03    0.21260E-06   -0.54861E-06 19547   0.449E-03
  24 F= -.68039864E+03 E0= -.68039864E+03  d E =-.101096E-04
       N       E                     dE             d eps       ncg     rms          rms(c)
DAV:   1    -0.680398646220E+03   -0.87426E-05   -0.41338E-03 25920   0.155E-01    0.168E-02
RMM:   2    -0.680398653005E+03   -0.67853E-05   -0.12927E-04 21758   0.309E-02    0.749E-03
RMM:   3    -0.680398652207E+03    0.79792E-06   -0.13487E-05 25248   0.101E-02    0.420E-03
RMM:   4    -0.680398652360E+03   -0.15308E-06   -0.19309E-06 12747   0.315E-03
  25 F= -.68039865E+03 E0= -.68039865E+03  d E =-.150956E-04
       N       E                     dE             d eps       ncg     rms          rms(c)
DAV:   1    -0.680398640243E+03    0.11964E-04   -0.14923E-02 25632   0.296E-01    0.289E-02
RMM:   2    -0.680398669871E+03   -0.29628E-04   -0.44467E-04 21315   0.582E-02    0.127E-02
RMM:   3    -0.680398668193E+03    0.16780E-05   -0.41882E-05 27886   0.189E-02    0.772E-03
RMM:   4    -0.680398668065E+03    0.12764E-06   -0.55693E-06 19401   0.434E-03
  26 F= -.68039867E+03 E0= -.68039867E+03  d E =-.157050E-04
       N       E                     dE             d eps       ncg     rms          rms(c)
DAV:   1    -0.680398665599E+03    0.25939E-05   -0.59367E-03 25920   0.188E-01    0.190E-02
RMM:   2    -0.680398677093E+03   -0.11493E-04   -0.18769E-04 21381   0.376E-02    0.854E-03
RMM:   3    -0.680398676470E+03    0.62261E-06   -0.18915E-05 27005   0.123E-02    0.499E-03
RMM:   4    -0.680398676537E+03   -0.67135E-07   -0.23367E-06 12977   0.322E-03
  27 F= -.68039868E+03 E0= -.68039868E+03  d E =-.847166E-05
       N       E                     dE             d eps       ncg     rms          rms(c)
DAV:   1    -0.680398685106E+03   -0.86359E-05   -0.74397E-04 25920   0.666E-02    0.533E-03
RMM:   2    -0.680398687134E+03   -0.20286E-05   -0.23677E-05 21780   0.131E-02    0.270E-03
RMM:   3    -0.680398687126E+03    0.84401E-08   -0.13813E-06 11271   0.414E-03    0.235E-03
RMM:   4    -0.680398687189E+03   -0.63097E-07   -0.46207E-07 11004   0.223E-03
  28 F= -.68039869E+03 E0= -.68039869E+03  d E =-.106520E-04
       N       E                     dE             d eps       ncg     rms          rms(c)
DAV:   1    -0.680398695695E+03   -0.85690E-05   -0.76739E-03 25440   0.213E-01    0.166E-02
RMM:   2    -0.680398714599E+03   -0.18904E-04   -0.23105E-04 21156   0.422E-02    0.773E-03
RMM:   3    -0.680398714797E+03   -0.19755E-06   -0.19354E-05 26279   0.134E-02    0.506E-03
RMM:   4    -0.680398714622E+03    0.17504E-06   -0.23847E-06 13039   0.316E-03
  29 F= -.68039871E+03 E0= -.68039871E+03  d E =-.274329E-04
       N       E                     dE             d eps       ncg     rms          rms(c)
DAV:   1    -0.680398722431E+03   -0.76345E-05   -0.11501E-03 25920   0.799E-02    0.652E-03
RMM:   2    -0.680398725023E+03   -0.25917E-05   -0.32540E-05 22349   0.152E-02    0.293E-03
RMM:   3    -0.680398724841E+03    0.18179E-06   -0.19492E-06 11594   0.462E-03    0.333E-03
RMM:   4    -0.680398724879E+03   -0.37471E-07   -0.55779E-07 10998   0.244E-03
  30 F= -.68039872E+03 E0= -.68039872E+03  d E =-.102569E-04
