 vasp.5.4.4.18Apr17-6-g9f103f2a35 (build Mar 05 2020 17:21:05) complex          
  
 executed on Linux justhpc1_p2018 date 2024.04.10  04:40:26
 running on   48 total cores
 distrk:  each k-point on   48 cores,    1 groups
 distr:  one band on NCORES_PER_BAND=   1 cores,   48 groups


--------------------------------------------------------------------------------------------------------


 INCAR:
 POTCAR:    PAW_PBE Li 17Jan2003                  
 POTCAR:    PAW_PBE Nb_sv 25May2007               
 POTCAR:    PAW_PBE O 08Apr2002                   
 POTCAR:    PAW_PBE Ta 17Jan2003                  

 ----------------------------------------------------------------------------- 
|                                                                             |
|           W    W    AA    RRRRR   N    N  II  N    N   GGGG   !!!           |
|           W    W   A  A   R    R  NN   N  II  NN   N  G    G  !!!           |
|           W    W  A    A  R    R  N N  N  II  N N  N  G       !!!           |
|           W WW W  AAAAAA  RRRRR   N  N N  II  N  N N  G  GGG   !            |
|           WW  WW  A    A  R   R   N   NN  II  N   NN  G    G                |
|           W    W  A    A  R    R  N    N  II  N    N   GGGG   !!!           |
|                                                                             |
|      For optimal performance we recommend to set                            |
|        NCORE= 4 - approx SQRT( number of cores)                             |
|      NCORE specifies how many cores store one orbital (NPAR=cpu/NCORE).     |
|      This setting can  greatly improve the performance of VASP for DFT.     |
|      The default,   NCORE=1            might be grossly inefficient         |
|      on modern multi-core architectures or massively parallel machines.     |
|      Do your own testing !!!!                                               |
|      Unfortunately you need to use the default for GW and RPA calculations. |
|      (for HF NCORE is supported but not extensively tested yet)             |
|                                                                             |
 ----------------------------------------------------------------------------- 

 POTCAR:    PAW_PBE Li 17Jan2003                  
  local pseudopotential read in
  partial core-charges read in
  partial kinetic energy density read in
  atomic valenz-charges read in
  non local Contribution for L=           0  read in
    real space projection operators read in
  non local Contribution for L=           0  read in
    real space projection operators read in
  non local Contribution for L=           1  read in
    real space projection operators read in
    PAW grid and wavefunctions read in
 
   number of l-projection  operators is LMAX  =           3
   number of lm-projection operators is LMMAX =           5
 
 POTCAR:    PAW_PBE Nb_sv 25May2007               
  local pseudopotential read in
  partial core-charges read in
  partial kinetic energy density read in
  atomic valenz-charges read in
  non local Contribution for L=           0  read in
    real space projection operators read in
  non local Contribution for L=           0  read in
    real space projection operators read in
  non local Contribution for L=           1  read in
    real space projection operators read in
  non local Contribution for L=           1  read in
    real space projection operators read in
  non local Contribution for L=           2  read in
    real space projection operators read in
  non local Contribution for L=           2  read in
    real space projection operators read in
    PAW grid and wavefunctions read in
 
   number of l-projection  operators is LMAX  =           6
   number of lm-projection operators is LMMAX =          18
 
 POTCAR:    PAW_PBE O 08Apr2002                   
  local pseudopotential read in
  partial core-charges read in
  partial kinetic energy density read in
  kinetic energy density of atom read in
  atomic valenz-charges read in
  non local Contribution for L=           0  read in
    real space projection operators read in
  non local Contribution for L=           0  read in
    real space projection operators read in
  non local Contribution for L=           1  read in
    real space projection operators read in
  non local Contribution for L=           1  read in
    real space projection operators read in
    PAW grid and wavefunctions read in
 
   number of l-projection  operators is LMAX  =           4
   number of lm-projection operators is LMMAX =           8
 
 POTCAR:    PAW_PBE Ta 17Jan2003                  
  local pseudopotential read in
  partial core-charges read in
  partial kinetic energy density read in
  atomic valenz-charges read in
  non local Contribution for L=           2  read in
    real space projection operators read in
  non local Contribution for L=           2  read in
    real space projection operators read in
  non local Contribution for L=           0  read in
    real space projection operators read in
  non local Contribution for L=           0  read in
    real space projection operators read in
  non local Contribution for L=           1  read in
    real space projection operators read in
  non local Contribution for L=           1  read in
    real space projection operators read in
    PAW grid and wavefunctions read in
 
   number of l-projection  operators is LMAX  =           6
   number of lm-projection operators is LMMAX =          18
 
 Optimization of the real space projectors (new method)

 maximal supplied QI-value         = 18.33
 optimisation between [QCUT,QGAM] = [ 11.00, 22.18] = [ 33.87,137.76] Ry 
 Optimized for a Real-space Cutoff    1.27 Angstroem

   l    n(q)    QCUT    max X(q) W(low)/X(q) W(high)/X(q)  e(spline) 
   0      8    10.998    33.825    0.29E-04    0.16E-03    0.54E-07
   0      8    10.998     8.944    0.19E-04    0.12E-03    0.42E-07
   1      8    10.998     4.214    0.16E-03    0.32E-04    0.49E-07
 Optimization of the real space projectors (new method)

 maximal supplied QI-value         = 15.68
 optimisation between [QCUT,QGAM] = [ 11.14, 22.27] = [ 34.73,138.91] Ry 
 Optimized for a Real-space Cutoff    1.75 Angstroem

   l    n(q)    QCUT    max X(q) W(low)/X(q) W(high)/X(q)  e(spline) 
   0     12    11.136    10.201    0.25E-04    0.67E-06    0.52E-07
   0     12    11.136     8.174    0.39E-04    0.20E-05    0.97E-07
   1     11    11.136     3.488    0.15E-05    0.92E-05    0.13E-06
   1     11    11.136     4.917    0.87E-05    0.65E-04    0.82E-06
   2     11    11.136   153.744    0.20E-03    0.19E-03    0.13E-05
   2     11    11.136   126.342    0.20E-03    0.19E-03    0.13E-05
 Optimization of the real space projectors (new method)

 maximal supplied QI-value         = 24.76
 optimisation between [QCUT,QGAM] = [ 11.14, 22.28] = [ 34.75,139.00] Ry 
 Optimized for a Real-space Cutoff    1.19 Angstroem

   l    n(q)    QCUT    max X(q) W(low)/X(q) W(high)/X(q)  e(spline) 
   0      8    11.140    20.381    0.23E-03    0.52E-03    0.22E-06
   0      8    11.140    15.268    0.24E-03    0.55E-03    0.24E-06
   1      7    11.140     5.964    0.11E-03    0.44E-03    0.26E-06
   1      7    11.140     5.382    0.84E-04    0.37E-03    0.23E-06
 Optimization of the real space projectors (new method)

 maximal supplied QI-value         = 12.85
 optimisation between [QCUT,QGAM] = [ 11.05, 22.23] = [ 34.20,138.39] Ry 
 Optimized for a Real-space Cutoff    1.65 Angstroem

   l    n(q)    QCUT    max X(q) W(low)/X(q) W(high)/X(q)  e(spline) 
   2     10    11.051    62.315    0.21E-03    0.15E-03    0.40E-06
   2     10    11.051    52.185    0.21E-03    0.15E-03    0.40E-06
   0     11    11.051   103.837    0.25E-04    0.82E-06    0.35E-06
   0     11    11.051    59.728    0.19E-04    0.76E-06    0.31E-06
   1     11    11.051    13.958    0.72E-04    0.92E-04    0.65E-06
   1     11    11.051     8.441    0.56E-04    0.61E-04    0.46E-06

 ----------------------------------------------------------------------------- 
|                                                                             |
|  ADVICE TO THIS USER RUNNING 'VASP/VAMP'   (HEAR YOUR MASTER'S VOICE ...):  |
|                                                                             |
|      You enforced a specific xc-type in the INCAR file,                     |
|      a different type was found on the POTCAR file                          |
|          I HOPE YOU KNOW, WHAT YOU ARE  DOING                               |
|                                                                             |
 ----------------------------------------------------------------------------- 

  PAW_PBE Li 17Jan2003                  :
 energy of atom  1       EATOM=   -5.3001
 kinetic energy error for atom=    0.0000 (will be added to EATOM!!)
  PAW_PBE Nb_sv 25May2007               :
 energy of atom  2       EATOM=-1555.1913
 kinetic energy error for atom=    0.0086 (will be added to EATOM!!)
  PAW_PBE O 08Apr2002                   :
 energy of atom  3       EATOM= -432.3788
 kinetic energy error for atom=    0.0273 (will be added to EATOM!!)
  PAW_PBE Ta 17Jan2003                  :
 energy of atom  4       EATOM= -130.6506
 kinetic energy error for atom=    0.0015 (will be added to EATOM!!)
 
 
 POSCAR: Li Nb  O Ta                             
  positions in cartesian coordinates
  No initial velocities read in
 exchange correlation table for  LEXCH =       14
   RHO(1)=    0.500       N(1)  =     2000
   RHO(2)=  100.500       N(2)  =     4000
 


--------------------------------------------------------------------------------------------------------


 ion  position               nearest neighbor table
   1  0.141  0.141  0.141-  38 2.04  43 2.04  54 2.04  29 2.25  27 2.25  28 2.25  75 3.03  20 3.06
                            22 3.06  18 3.06  76 3.37  78 3.37
   2  0.391  0.391  0.391-  35 2.04  40 2.04  51 2.04  55 2.25  44 2.25  36 2.25  25 3.03  76 3.06
                            19 3.06  78 3.06  79 3.37
   3  0.141  0.141  0.641-  32 2.04  49 2.04  60 2.04  35 2.25  33 2.25  34 2.25  19 3.03  21 3.06
                            17 3.06  79 3.06  77 3.37  75 3.37  80 3.37
   4  0.391  0.391  0.891-  29 2.04  46 2.04  57 2.04  61 2.25  50 2.25  30 2.25  23 3.03  77 3.06
                            75 3.06  80 3.06
   5  0.141  0.641  0.141-  50 2.04  31 2.04  66 2.04  41 2.25  39 2.25  40 2.25  76 3.03  17 3.06
                            23 3.06  21 3.06  75 3.37  77 3.37
   6  0.391  0.891  0.391-  47 2.04  28 2.04  63 2.04  67 2.25  32 2.25  48 2.25  79 3.03  75 3.06
                            77 3.06  24 3.06
   7  0.141  0.641  0.641-  44 2.04  37 2.04  72 2.04  47 2.25  45 2.25  46 2.25  77 3.03  18 3.06
                            25 3.06  20 3.06  76 3.37
   8  0.391  0.891  0.891-  41 2.04  34 2.04  69 2.04  73 2.25  38 2.25  42 2.25  22 3.03  19 3.06
                            26 3.06  76 3.06  79 3.37
   9  0.641  0.141  0.141-  62 2.04  67 2.04  30 2.04  53 2.25  51 2.25  52 2.25  78 3.03  23 3.06
                            17 3.06  79 3.06  75 3.37  80 3.37
  10  0.891  0.391  0.391-  59 2.04  64 2.04  27 2.04  31 2.25  68 2.25  60 2.25  21 3.03  24 3.06
                            75 3.06  80 3.06
  11  0.641  0.141  0.641-  56 2.04  73 2.04  36 2.04  59 2.25  57 2.25  58 2.25  80 3.03  25 3.06
                            18 3.06  22 3.06  78 3.37
  12  0.891  0.391  0.891-  53 2.04  70 2.04  33 2.04  37 2.25  74 2.25  54 2.25  20 3.03  26 3.06
                            19 3.06  78 3.06
  13  0.641  0.641  0.141-  74 2.04  55 2.04  42 2.04  65 2.25  63 2.25  64 2.25  24 3.03  22 3.06
                            20 3.06  25 3.06  78 3.37  76 3.37
  14  0.891  0.891  0.391-  71 2.04  52 2.04  39 2.04  43 2.25  56 2.25  72 2.25  18 3.03  78 3.06
                            76 3.06  26 3.06  79 3.37
  15  0.641  0.641  0.641-  68 2.04  61 2.04  48 2.04  71 2.25  69 2.25  70 2.25  26 3.03  79 3.06
                            21 3.06  23 3.06  80 3.37  77 3.37
  16  0.891  0.891  0.891-  65 2.04  58 2.04  45 2.04  49 2.25  62 2.25  66 2.25  17 3.03  80 3.06
                            77 3.06  24 3.06
  17  0.000  0.000  0.000-  52 1.88  41 1.88  33 1.88  66 2.14  49 2.14  62 2.14  16 3.03   5 3.06
                             9 3.06   3 3.06
  18  0.000  0.000  0.500-  58 1.88  47 1.88  27 1.88  72 2.14  43 2.14  56 2.14  14 3.03   7 3.06
                            11 3.06   1 3.06
  19  0.250  0.250  0.750-  38 1.88  37 1.88  36 1.88  35 2.14  33 2.14  34 2.14   3 3.03   8 3.06
                             2 3.06  12 3.06
  20  0.000  0.500  0.000-  64 1.88  29 1.88  45 1.88  54 2.14  37 2.14  74 2.14  12 3.03   1 3.06
                             7 3.06  13 3.06
  21  0.000  0.500  0.500-  70 1.88  35 1.88  39 1.88  60 2.14  31 2.14  68 2.14  10 3.03   3 3.06
                             5 3.06  15 3.06
  22  0.500  0.000  0.000-  28 1.88  65 1.88  57 1.88  42 2.14  73 2.14  38 2.14   8 3.03  13 3.06
                            11 3.06   1 3.06
  23  0.500  0.500  0.000-  40 1.88  53 1.88  69 1.88  30 2.14  61 2.14  50 2.14   4 3.03   9 3.06
                             5 3.06  15 3.06
  24  0.750  0.750  0.250-  68 1.88  67 1.88  66 1.88  65 2.14  63 2.14  64 2.14  13 3.03  10 3.06
                             6 3.06  16 3.06
  25  0.500  0.500  0.500-  46 1.88  59 1.88  63 1.88  36 2.14  55 2.14  44 2.14   2 3.03  11 3.06
                             7 3.06  13 3.06
  26  0.750  0.750  0.750-  74 1.88  73 1.88  72 1.88  71 2.14  69 2.14  70 2.14  15 3.03  12 3.06
                            14 3.06   8 3.06
  27  0.054  0.182  0.360-  18 1.88  10 2.04  75 2.14   1 2.25
  28  0.360  0.054  0.182-  22 1.88   6 2.04  75 2.14   1 2.25
  29  0.182  0.360  0.054-  20 1.88   4 2.04  75 2.14   1 2.25
  30  0.432  0.304  0.110-  75 1.88   9 2.04  23 2.14   4 2.25
  31  0.110  0.432  0.304-  75 1.88   5 2.04  21 2.14  10 2.25
  32  0.304  0.110  0.432-  75 1.88   3 2.04  79 2.14   6 2.25
  33  0.054  0.182  0.860-  17 1.88  12 2.04  19 2.14   3 2.25
  34  0.360  0.054  0.682-  79 1.88   8 2.04  19 2.14   3 2.25
  35  0.182  0.360  0.554-  21 1.88   2 2.04  19 2.14   3 2.25
  36  0.432  0.304  0.610-  19 1.88  11 2.04  25 2.14   2 2.25
  37  0.110  0.432  0.804-  19 1.88   7 2.04  20 2.14  12 2.25
  38  0.304  0.110  0.932-  19 1.88   1 2.04  22 2.14   8 2.25
  39  0.054  0.682  0.360-  21 1.88  14 2.04  76 2.14   5 2.25
  40  0.360  0.554  0.182-  23 1.88   2 2.04  76 2.14   5 2.25
  41  0.182  0.860  0.054-  17 1.88   8 2.04  76 2.14   5 2.25
  42  0.432  0.804  0.110-  76 1.88  13 2.04  22 2.14   8 2.25
  43  0.110  0.932  0.304-  76 1.88   1 2.04  18 2.14  14 2.25
  44  0.304  0.610  0.432-  76 1.88   7 2.04  25 2.14   2 2.25
  45  0.054  0.682  0.860-  20 1.88  16 2.04  77 2.14   7 2.25
  46  0.360  0.554  0.682-  25 1.88   4 2.04  77 2.14   7 2.25
  47  0.182  0.860  0.554-  18 1.88   6 2.04  77 2.14   7 2.25
  48  0.432  0.804  0.610-  77 1.88  15 2.04  79 2.14   6 2.25
  49  0.110  0.932  0.804-  77 1.88   3 2.04  17 2.14  16 2.25
  50  0.304  0.610  0.932-  77 1.88   5 2.04  23 2.14   4 2.25
  51  0.554  0.182  0.360-  79 1.88   2 2.04  78 2.14   9 2.25
  52  0.860  0.054  0.182-  17 1.88  14 2.04  78 2.14   9 2.25
  53  0.682  0.360  0.054-  23 1.88  12 2.04  78 2.14   9 2.25
  54  0.932  0.304  0.110-  78 1.88   1 2.04  20 2.14  12 2.25
  55  0.610  0.432  0.304-  78 1.88  13 2.04  25 2.14   2 2.25
  56  0.804  0.110  0.432-  78 1.88  11 2.04  18 2.14  14 2.25
  57  0.554  0.182  0.860-  22 1.88   4 2.04  80 2.14  11 2.25
  58  0.860  0.054  0.682-  18 1.88  16 2.04  80 2.14  11 2.25
  59  0.682  0.360  0.554-  25 1.88  10 2.04  80 2.14  11 2.25
  60  0.932  0.304  0.610-  80 1.88   3 2.04  21 2.14  10 2.25
  61  0.610  0.432  0.804-  80 1.88  15 2.04  23 2.14   4 2.25
  62  0.804  0.110  0.932-  80 1.88   9 2.04  17 2.14  16 2.25
  63  0.554  0.682  0.360-  25 1.88   6 2.04  24 2.14  13 2.25
  64  0.860  0.554  0.182-  20 1.88  10 2.04  24 2.14  13 2.25
  65  0.682  0.860  0.054-  22 1.88  16 2.04  24 2.14  13 2.25
  66  0.932  0.804  0.110-  24 1.88   5 2.04  17 2.14  16 2.25
  67  0.610  0.932  0.304-  24 1.88   9 2.04  79 2.14   6 2.25
  68  0.804  0.610  0.432-  24 1.88  15 2.04  21 2.14  10 2.25
  69  0.554  0.682  0.860-  23 1.88   8 2.04  26 2.14  15 2.25
  70  0.860  0.554  0.682-  21 1.88  12 2.04  26 2.14  15 2.25
  71  0.682  0.860  0.554-  79 1.88  14 2.04  26 2.14  15 2.25
  72  0.932  0.804  0.610-  26 1.88   7 2.04  18 2.14  14 2.25
  73  0.610  0.932  0.804-  26 1.88  11 2.04  22 2.14   8 2.25
  74  0.804  0.610  0.932-  26 1.88  13 2.04  20 2.14  12 2.25
  75  0.250  0.250  0.250-  32 1.88  31 1.88  30 1.88  29 2.14  27 2.14  28 2.14   1 3.03   6 3.06
                             4 3.06  10 3.06   5 3.37   9 3.37   3 3.37
  76  0.250  0.750  0.250-  44 1.88  43 1.88  42 1.88  41 2.14  39 2.14  40 2.14   5 3.03   2 3.06
                             8 3.06  14 3.06   1 3.37  13 3.37   7 3.37
  77  0.250  0.750  0.750-  50 1.88  49 1.88  48 1.88  47 2.14  45 2.14  46 2.14   7 3.03   4 3.06
                             6 3.06  16 3.06   3 3.37  15 3.37   5 3.37
  78  0.750  0.250  0.250-  56 1.88  55 1.88  54 1.88  53 2.14  51 2.14  52 2.14   9 3.03  14 3.06
                            12 3.06   2 3.06  13 3.37  11 3.37   1 3.37
  79  0.500  0.000  0.500-  34 1.88  71 1.88  51 1.88  48 2.14  67 2.14  32 2.14   6 3.03  15 3.06
                             9 3.06   3 3.06  14 3.37   8 3.37   2 3.37
  80  0.750  0.250  0.750-  62 1.88  61 1.88  60 1.88  59 2.14  57 2.14  58 2.14  11 3.03  16 3.06
                             4 3.06  10 3.06  15 3.37   3 3.37   9 3.37
 
  LATTYP: Found a trigonal (rhomboedric) cell.
 ALAT       =    10.9879364520
 COS(alpha) =     0.5611159327
  
  Lattice vectors:
  
 A1 = (   5.1472556000,  -2.9717758000,   9.2417020000)
 A2 = (   0.0000000000,   5.9435406000,   9.2417020000)
 A3 = (  -5.1472556000,  -2.9717758000,   9.2417020000)


Analysis of symmetry for initial positions (statically):
=====================================================================
 Subroutine PRICEL returns:
 Original cell was already a primitive cell.
 

 Routine SETGRP: Setting up the symmetry group for a 
 trigonal (rhombohedral) supercell.


 Subroutine GETGRP returns: Found  1 space group operations
 (whereof  1 operations were pure point group operations)
 out of a pool of 12 trial point group operations.


The static configuration has the point symmetry C_1 .


Analysis of symmetry for dynamics (positions and initial velocities):
=====================================================================
 Subroutine PRICEL returns:
 Original cell was already a primitive cell.
 

 Routine SETGRP: Setting up the symmetry group for a 
 trigonal (rhombohedral) supercell.


 Subroutine GETGRP returns: Found  1 space group operations
 (whereof  1 operations were pure point group operations)
 out of a pool of 12 trial point group operations.


The dynamic configuration has the point symmetry C_1 .


 Subroutine INISYM returns: Found  1 space group operations
 (whereof  1 operations are pure point group operations),
 and found     1 'primitive' translations

 
 
 KPOINTS: Autom                                   

Automatic generation of k-mesh.
Space group operators:
 irot       det(A)        alpha          n_x          n_y          n_z        tau_x        tau_y        tau_z
    1     1.000000     0.000000     1.000000     0.000000     0.000000     0.000000     0.000000     0.000000
 
 Subroutine IBZKPT returns following result:
 ===========================================
 
 Found     36 irreducible k-points:
 
 Following reciprocal coordinates:
            Coordinates               Weight
  0.000000  0.000000  0.000000      1.000000
  0.250000  0.000000  0.000000      2.000000
  0.500000  0.000000  0.000000      1.000000
  0.000000  0.250000  0.000000      2.000000
  0.250000  0.250000  0.000000      2.000000
  0.500000  0.250000  0.000000      2.000000
 -0.250000  0.250000 -0.000000      2.000000
  0.000000  0.500000  0.000000      1.000000
  0.250000  0.500000  0.000000      2.000000
  0.500000  0.500000  0.000000      1.000000
  0.000000  0.000000  0.250000      2.000000
  0.250000  0.000000  0.250000      2.000000
  0.500000  0.000000  0.250000      2.000000
 -0.250000  0.000000  0.250000      2.000000
  0.000000  0.250000  0.250000      2.000000
  0.250000  0.250000  0.250000      2.000000
  0.500000  0.250000  0.250000      2.000000
 -0.250000  0.250000  0.250000      2.000000
  0.000000  0.500000  0.250000      2.000000
  0.250000  0.500000  0.250000      2.000000
  0.500000  0.500000  0.250000      2.000000
 -0.250000  0.500000  0.250000      2.000000
  0.000000 -0.250000  0.250000      2.000000
  0.250000 -0.250000  0.250000      2.000000
  0.500000 -0.250000  0.250000      2.000000
 -0.250000 -0.250000  0.250000      2.000000
  0.000000  0.000000  0.500000      1.000000
  0.250000  0.000000  0.500000      2.000000
  0.500000  0.000000  0.500000      1.000000
  0.000000  0.250000  0.500000      2.000000
  0.250000  0.250000  0.500000      2.000000
  0.500000  0.250000  0.500000      2.000000
 -0.250000  0.250000  0.500000      2.000000
  0.000000  0.500000  0.500000      1.000000
  0.250000  0.500000  0.500000      2.000000
  0.500000  0.500000  0.500000      1.000000
 
 Following cartesian coordinates:
            Coordinates               Weight
  0.000000  0.000000  0.000000      1.000000
  0.024285 -0.014021  0.009017      2.000000
  0.048570 -0.028042  0.018034      1.000000
  0.000000  0.028042  0.009017      2.000000
  0.024285  0.014021  0.018034      2.000000
  0.048570 -0.000000  0.027051      2.000000
 -0.024285  0.042062  0.000000      2.000000
  0.000000  0.056083  0.018034      1.000000
  0.024285  0.042062  0.027051      2.000000
  0.048570  0.028042  0.036068      1.000000
 -0.024285 -0.014021  0.009017      2.000000
  0.000000 -0.028042  0.018034      2.000000
  0.024285 -0.042062  0.027051      2.000000
 -0.048570  0.000000  0.000000      2.000000
 -0.024285  0.014021  0.018034      2.000000
  0.000000  0.000000  0.027051      2.000000
  0.024285 -0.014021  0.036068      2.000000
 -0.048570  0.028042  0.009017      2.000000
 -0.024285  0.042062  0.027051      2.000000
  0.000000  0.028042  0.036068      2.000000
  0.024285  0.014021  0.045085      2.000000
 -0.048570  0.056083  0.018034      2.000000
 -0.024285 -0.042062 -0.000000      2.000000
  0.000000 -0.056083  0.009017      2.000000
  0.024285 -0.070104  0.018034      2.000000
 -0.048570 -0.028042 -0.009017      2.000000
 -0.048570 -0.028042  0.018034      1.000000
 -0.024285 -0.042062  0.027051      2.000000
  0.000000 -0.056083  0.036068      1.000000
 -0.048570  0.000000  0.027051      2.000000
 -0.024285 -0.014021  0.036068      2.000000
  0.000000 -0.028042  0.045085      2.000000
 -0.072854  0.014021  0.018034      2.000000
 -0.048570  0.028042  0.036068      1.000000
 -0.024285  0.014021  0.045085      2.000000
  0.000000  0.000000  0.054103      1.000000
 
 TETIRR: Found    192 inequivalent tetrahedra from      384


--------------------------------------------------------------------------------------------------------




 Dimension of arrays:
   k-points           NKPTS =     36   k-points in BZ     NKDIM =     36   number of bands    NBANDS=    288
   number of dos      NEDOS =    301   number of ions     NIONS =     80
   non local maximal  LDIM  =      6   non local SUM 2l+1 LMDIM =     18
   total plane-waves  NPLWV = 512000
   max r-space proj   IRMAX =  13685   max aug-charges    IRDMAX=  41285
   dimension x,y,z NGX =    80 NGY =   80 NGZ =   80
   dimension x,y,z NGXF=   160 NGYF=  160 NGZF=  160
   support grid    NGXF=   160 NGYF=  160 NGZF=  160
   ions per type =              16  10  48   6
   NGX,Y,Z   is equivalent  to a cutoff of  12.10, 12.10, 12.10 a.u.
   NGXF,Y,Z  is equivalent  to a cutoff of  24.21, 24.21, 24.21 a.u.

 SYSTEM =  Li(NbTa)O_3                             
 POSCAR =  Li Nb  O Ta                             

 Startparameter for this run:
   NWRITE =      0    write-flag & timer
   PREC   = accura    normal or accurate (medium, high low for compatibility)
   ISTART =      0    job   : 0-new  1-cont  2-samecut
   ICHARG =      2    charge: 1-file 2-atom 10-const
   ISPIN  =      1    spin polarized calculation?
   LNONCOLLINEAR =      F non collinear calculations
   LSORBIT =      F    spin-orbit coupling
   INIWAV =      1    electr: 0-lowe 1-rand  2-diag
   LASPH  =      F    aspherical Exc in radial PAW
   METAGGA=      F    non-selfconsistent MetaGGA calc.

 Electronic Relaxation 1
   ENCUT  =  475.0 eV  34.91 Ry    5.91 a.u.  19.53 19.53 19.53*2*pi/ulx,y,z
   ENINI  =  475.0     initial cutoff
   ENAUG  =  605.4 eV  augmentation charge cutoff
   NELM   =   1000;   NELMIN=  4; NELMDL= -5     # of ELM steps 
   EDIFF  = 0.1E-05   stopping-criterion for ELM
   LREAL  =      T    real-space projection
   NLSPLINE    = F    spline interpolate recip. space projectors
   LCOMPAT=      F    compatible to vasp.4.4
   GGA_COMPAT  = T    GGA compatible to vasp.4.4-vasp.4.6
   LMAXPAW     = -100 max onsite density
   LMAXMIX     =    2 max onsite mixed and CHGCAR
   VOSKOWN=      0    Vosko Wilk Nusair interpolation
   ROPT   =   -0.00025  -0.00025  -0.00025  -0.00025
 Ionic relaxation
   EDIFFG = -.5E-02   stopping-criterion for IOM
   NSW    =    200    number of steps for IOM
   NBLOCK =      1;   KBLOCK =    200    inner block; outer block 
   IBRION =      1    ionic relax: 0-MD 1-quasi-New 2-CG
   NFREE  =      0    steps in history (QN), initial steepest desc. (CG)
   ISIF   =      3    stress and relaxation
   IWAVPR =     11    prediction:  0-non 1-charg 2-wave 3-comb
   ISYM   =      2    0-nonsym 1-usesym 2-fastsym
   LCORR  =      T    Harris-Foulkes like correction to forces

   POTIM  = 0.1500    time-step for ionic-motion
   TEIN   =    0.0    initial temperature
   TEBEG  =    0.0;   TEEND  =   0.0 temperature during run
   SMASS  =  -3.00    Nose mass-parameter (am)
   estimated Nose-frequenzy (Omega)   =  0.10E-29 period in steps =****** mass=  -0.276E-26a.u.
   SCALEE = 1.0000    scale energy and forces
   NPACO  =    256;   APACO  = 16.0  distance and # of slots for P.C.
   PSTRESS=    0.0 pullay stress

  Mass of Ions in am
   POMASS =   7.01 92.91 16.00180.95
  Ionic Valenz
   ZVAL   =   1.00 13.00  6.00  5.00
  Atomic Wigner-Seitz radii
   RWIGS  =  -1.00 -1.00 -1.00 -1.00
  virtual crystal weights 
   VCA    =   1.00  1.00  1.00  1.00
   NELECT =     464.0000    total number of electrons
   NUPDOWN=      -1.0000    fix difference up-down

 DOS related values:
   EMIN   =  10.00;   EMAX   =-10.00  energy-range for DOS
   EFERMI =   0.00
   ISMEAR =    -5;   SIGMA  =   0.05  broadening in eV -4-tet -1-fermi 0-gaus

 Electronic relaxation 2 (details)
   IALGO  =     68    algorithm
   LDIAG  =      T    sub-space diagonalisation (order eigenvalues)
   LSUBROT=      F    optimize rotation matrix (better conditioning)
   TURBO    =      0    0=normal 1=particle mesh
   IRESTART =      0    0=no restart 2=restart with 2 vectors
   NREBOOT  =      0    no. of reboots
   NMIN     =      0    reboot dimension
   EREF     =   0.00    reference energy to select bands
   IMIX   =      4    mixing-type and parameters
     AMIX     =   0.40;   BMIX     =  1.00
     AMIX_MAG =   1.60;   BMIX_MAG =  1.00
     AMIN     =   0.10
     WC   =   100.;   INIMIX=   1;  MIXPRE=   1;  MAXMIX= -45

 Intra band minimization:
   WEIMIN = 0.0010     energy-eigenvalue tresh-hold
   EBREAK =  0.87E-09  absolut break condition
   DEPER  =   0.30     relativ break condition  

   TIME   =   0.40     timestep for ELM

  volume/ion in A,a.u.               =      10.60        71.55
  Fermi-wavevector in a.u.,A,eV,Ry     =   1.338904  2.530161 24.390662  1.792663
  Thomas-Fermi vector in A             =   2.467338
 
 Write flags
   LWAVE        =      F    write WAVECAR
   LDOWNSAMPLE  =      F    k-point downsampling of WAVECAR
   LCHARG       =      F    write CHGCAR
   LVTOT        =      F    write LOCPOT, total local potential
   LVHAR        =      F    write LOCPOT, Hartree potential only
   LELF         =      F    write electronic localiz. function (ELF)
   LORBIT       =      0    0 simple, 1 ext, 2 COOP (PROOUT), +10 PAW based schemes


 Dipole corrections
   LMONO  =      F    monopole corrections only (constant potential shift)
   LDIPOL =      F    correct potential (dipole corrections)
   IDIPOL =      0    1-x, 2-y, 3-z, 4-all directions 
   EPSILON=  1.0000000 bulk dielectric constant

 Exchange correlation treatment:
   GGA     =    PS    GGA type
   LEXCH   =    14    internal setting for exchange type
   VOSKOWN=      0    Vosko Wilk Nusair interpolation
   LHFCALC =     F    Hartree Fock is set to
   LHFONE  =     F    Hartree Fock one center treatment
   AEXX    =    0.0000 exact exchange contribution

 Linear response parameters
   LEPSILON=     F    determine dielectric tensor
   LRPA    =     F    only Hartree local field effects (RPA)
   LNABLA  =     F    use nabla operator in PAW spheres
   LVEL    =     F    velocity operator in full k-point grid
   LINTERFAST=   F  fast interpolation
   KINTER  =     0    interpolate to denser k-point grid
   CSHIFT  =0.1000    complex shift for real part using Kramers Kronig
   OMEGAMAX=  -1.0    maximum frequency
   DEG_THRESHOLD= 0.2000000E-02 threshold for treating states as degnerate
   RTIME   =   -0.100 relaxation time in fs
  (WPLASMAI=    0.000 imaginary part of plasma frequency in eV, 0.658/RTIME)
   DFIELD  = 0.0000000 0.0000000 0.0000000 field for delta impulse in time
 
 Orbital magnetization related:
   ORBITALMAG=     F  switch on orbital magnetization
   LCHIMAG   =     F  perturbation theory with respect to B field
   DQ        =  0.001000  dq finite difference perturbation B field
   LLRAUG    =     F  two centre corrections for induced B field



--------------------------------------------------------------------------------------------------------


 quasi-Newton-method for relaxation of ions
 charge density and potential will be updated during run
 non-spin polarized calculation
 RMM-DIIS sequential band-by-band and
  variant of blocked Davidson during initial phase
 perform sub-space diagonalisation
    before iterative eigenvector-optimisation
 modified Broyden-mixing scheme, WC =      100.0
 initial mixing is a Kerker type mixing with AMIX =  0.4000 and BMIX =      1.0000
 Hartree-type preconditioning will be used
 using additional bands           56
 real space projection scheme for non local part
 use partial core corrections
 calculate Harris-corrections to forces 
   (improved forces if not selfconsistent)
 use gradient corrections 
 use of overlap-Matrix (Vanderbilt PP)
 Fermi weights with tetrahedron method with Bloechl corrections


--------------------------------------------------------------------------------------------------------


  energy-cutoff  :      475.00
  volume of cell :      848.19
      direct lattice vectors                 reciprocal lattice vectors
     5.147255600 -2.971775800  9.241702000     0.097139143 -0.056083259  0.036068370
     0.000000000  5.943540600  9.241702000     0.000000000  0.112166518  0.036068437
    -5.147255600 -2.971775800  9.241702000    -0.097139143 -0.056083259  0.036068370

  length of vectors
    10.987936452 10.987935690 10.987936452     0.117823056  0.117823003  0.117823056


 
 k-points in units of 2pi/SCALE and weight: Autom                                   
   0.00000000  0.00000000  0.00000000       0.016
   0.02428479 -0.01402081  0.00901709       0.031
   0.04856957 -0.02804163  0.01803419       0.016
   0.00000000  0.02804163  0.00901711       0.031
   0.02428479  0.01402081  0.01803420       0.031
   0.04856957 -0.00000000  0.02705129       0.031
  -0.02428479  0.04206244  0.00000002       0.031
   0.00000000  0.05608326  0.01803422       0.016
   0.02428479  0.04206244  0.02705131       0.031
   0.04856957  0.02804163  0.03606840       0.016
  -0.02428479 -0.01402081  0.00901709       0.031
   0.00000000 -0.02804163  0.01803419       0.031
   0.02428479 -0.04206244  0.02705128       0.031
  -0.04856957  0.00000000  0.00000000       0.031
  -0.02428479  0.01402081  0.01803420       0.031
   0.00000000  0.00000000  0.02705129       0.031
   0.02428479 -0.01402081  0.03606839       0.031
  -0.04856957  0.02804163  0.00901711       0.031
  -0.02428479  0.04206244  0.02705131       0.031
   0.00000000  0.02804163  0.03606840       0.031
   0.02428479  0.01402081  0.04508550       0.031
  -0.04856957  0.05608326  0.01803422       0.031
  -0.02428479 -0.04206244 -0.00000002       0.031
   0.00000000 -0.05608326  0.00901708       0.031
   0.02428479 -0.07010407  0.01803417       0.031
  -0.04856957 -0.02804163 -0.00901711       0.031
  -0.04856957 -0.02804163  0.01803419       0.016
  -0.02428479 -0.04206244  0.02705128       0.031
   0.00000000 -0.05608326  0.03606837       0.016
  -0.04856957  0.00000000  0.02705129       0.031
  -0.02428479 -0.01402081  0.03606839       0.031
   0.00000000 -0.02804163  0.04508548       0.031
  -0.07285436  0.01402081  0.01803420       0.031
  -0.04856957  0.02804163  0.03606840       0.016
  -0.02428479  0.01402081  0.04508550       0.031
   0.00000000  0.00000000  0.05410259       0.016
 
 k-points in reciprocal lattice and weights: Autom                                   
   0.00000000  0.00000000  0.00000000       0.016
   0.25000000  0.00000000  0.00000000       0.031
   0.50000000  0.00000000  0.00000000       0.016
   0.00000000  0.25000000  0.00000000       0.031
   0.25000000  0.25000000  0.00000000       0.031
   0.50000000  0.25000000  0.00000000       0.031
  -0.25000000  0.25000000 -0.00000000       0.031
   0.00000000  0.50000000  0.00000000       0.016
   0.25000000  0.50000000  0.00000000       0.031
   0.50000000  0.50000000  0.00000000       0.016
   0.00000000  0.00000000  0.25000000       0.031
   0.25000000  0.00000000  0.25000000       0.031
   0.50000000  0.00000000  0.25000000       0.031
  -0.25000000  0.00000000  0.25000000       0.031
   0.00000000  0.25000000  0.25000000       0.031
   0.25000000  0.25000000  0.25000000       0.031
   0.50000000  0.25000000  0.25000000       0.031
  -0.25000000  0.25000000  0.25000000       0.031
   0.00000000  0.50000000  0.25000000       0.031
   0.25000000  0.50000000  0.25000000       0.031
   0.50000000  0.50000000  0.25000000       0.031
  -0.25000000  0.50000000  0.25000000       0.031
   0.00000000 -0.25000000  0.25000000       0.031
   0.25000000 -0.25000000  0.25000000       0.031
   0.50000000 -0.25000000  0.25000000       0.031
  -0.25000000 -0.25000000  0.25000000       0.031
   0.00000000  0.00000000  0.50000000       0.016
   0.25000000  0.00000000  0.50000000       0.031
   0.50000000  0.00000000  0.50000000       0.016
   0.00000000  0.25000000  0.50000000       0.031
   0.25000000  0.25000000  0.50000000       0.031
   0.50000000  0.25000000  0.50000000       0.031
  -0.25000000  0.25000000  0.50000000       0.031
   0.00000000  0.50000000  0.50000000       0.016
   0.25000000  0.50000000  0.50000000       0.031
   0.50000000  0.50000000  0.50000000       0.016
 
 position of ions in fractional coordinates (direct lattice) 
   0.14094405  0.14094430  0.14094405
   0.39094295  0.39094365  0.39094295
   0.14094405  0.14094430  0.64094405
   0.39094295  0.39094365  0.89094295
   0.14094405  0.64094430  0.14094405
   0.39094295  0.89094365  0.39094295
   0.14094405  0.64094430  0.64094405
   0.39094295  0.89094365  0.89094295
   0.64094405  0.14094430  0.14094405
   0.89094295  0.39094365  0.39094295
   0.64094405  0.14094430  0.64094405
   0.89094295  0.39094365  0.89094295
   0.64094405  0.64094430  0.14094405
   0.89094295  0.89094365  0.39094295
   0.64094405  0.64094430  0.64094405
   0.89094295  0.89094365  0.89094295
   0.00020505  0.00020505  0.00020505
   0.00020505  0.00020505  0.50020505
   0.25020430  0.25020475  0.75020430
   0.00020505  0.50020505  0.00020505
   0.00020505  0.50020505  0.50020505
   0.50020505  0.00020505  0.00020505
   0.50020505  0.50020505  0.00020505
   0.75020430  0.75020475  0.25020430
   0.50020505  0.50020505  0.50020505
   0.75020430  0.75020475  0.75020430
   0.05381235  0.18164315  0.36018735
   0.36018730  0.05381285  0.18164270
   0.18164285  0.36018755  0.05381245
   0.43164200  0.30381225  0.11018930
   0.11018940  0.43164240  0.30381175
   0.30381165  0.11019005  0.43164190
   0.05381235  0.18164315  0.86018735
   0.36018730  0.05381285  0.68164270
   0.18164285  0.36018755  0.55381245
   0.43164200  0.30381225  0.61018930
   0.11018940  0.43164240  0.80381175
   0.30381165  0.11019005  0.93164190
   0.05381235  0.68164315  0.36018735
   0.36018730  0.55381285  0.18164270
   0.18164285  0.86018755  0.05381245
   0.43164200  0.80381225  0.11018930
   0.11018940  0.93164240  0.30381175
   0.30381165  0.61019005  0.43164190
   0.05381235  0.68164315  0.86018735
   0.36018730  0.55381285  0.68164270
   0.18164285  0.86018755  0.55381245
   0.43164200  0.80381225  0.61018930
   0.11018940  0.93164240  0.80381175
   0.30381165  0.61019005  0.93164190
   0.55381235  0.18164315  0.36018735
   0.86018730  0.05381285  0.18164270
   0.68164285  0.36018755  0.05381245
   0.93164200  0.30381225  0.11018930
   0.61018940  0.43164240  0.30381175
   0.80381165  0.11019005  0.43164190
   0.55381235  0.18164315  0.86018735
   0.86018730  0.05381285  0.68164270
   0.68164285  0.36018755  0.55381245
   0.93164200  0.30381225  0.61018930
   0.61018940  0.43164240  0.80381175
   0.80381165  0.11019005  0.93164190
   0.55381235  0.68164315  0.36018735
   0.86018730  0.55381285  0.18164270
   0.68164285  0.86018755  0.05381245
   0.93164200  0.80381225  0.11018930
   0.61018940  0.93164240  0.30381175
   0.80381165  0.61019005  0.43164190
   0.55381235  0.68164315  0.86018735
   0.86018730  0.55381285  0.68164270
   0.68164285  0.86018755  0.55381245
   0.93164200  0.80381225  0.61018930
   0.61018940  0.93164240  0.80381175
   0.80381165  0.61019005  0.93164190
   0.25020430  0.25020475  0.25020430
   0.25020430  0.75020475  0.25020430
   0.25020430  0.75020475  0.75020430
   0.75020430  0.25020475  0.25020430
   0.50020505  0.00020505  0.50020505
   0.75020430  0.25020475  0.75020430
 
 position of ions in cartesian coordinates  (Angst):
   0.00000000 -0.00000006  3.90769104
   0.00000000 -0.00000014 10.83894120
  -2.57362780 -1.48588796  8.52854204
  -2.57362780 -1.48588804 15.45979220
   0.00000000  2.97177024  8.52854204
   0.00000000  2.97177016 15.45979220
  -2.57362780  1.48588234 13.14939304
  -2.57362780  1.48588226 20.08064320
   2.57362780 -1.48588796  8.52854204
   2.57362780 -1.48588804 15.45979220
   0.00000000 -2.97177586 13.14939304
   0.00000000 -2.97177594 20.08064320
   2.57362780  1.48588234 13.14939304
   2.57362780  1.48588226 20.08064320
   0.00000000 -0.00000556 17.77024404
   0.00000000 -0.00000564 24.70149420
   0.00000000 -0.00000000  0.00568503
  -2.57362780 -1.48588790  4.62653603
  -2.57362780 -1.48588798 11.55779590
   0.00000000  2.97177030  4.62653603
  -2.57362780  1.48588240  9.24738703
   2.57362780 -1.48588790  4.62653603
   2.57362780  1.48588240  9.24738703
   2.57362780  1.48588232 16.17864690
   0.00000000 -0.00000550 13.86823803
   0.00000000 -0.00000558 20.79949790
  -1.57699043 -0.15071085  5.50475372
   0.91901469 -1.29035842  5.50475372
   0.65797574  1.44106896  5.50475372
   1.65459921  0.19551930  7.81518569
  -0.99662373  1.33516553  7.81518569
  -0.65797497 -1.53068403  7.81518615
  -4.15061823 -1.63659875 10.12560472
  -1.65461311 -2.77624632 10.12560472
  -1.91565206 -0.04481894 10.12560472
  -0.91902859 -1.29036860 12.43603669
  -3.57025153 -0.15072237 12.43603669
  -3.23160277 -3.01657193 12.43603715
  -1.57699043  2.82105945 10.12560472
   0.91901469  1.68141188 10.12560472
   0.65797574  4.41283926 10.12560472
   1.65459921  3.16728960 12.43603669
  -0.99662373  4.30693583 12.43603669
  -0.65797497  1.44108627 12.43603715
  -4.15061823  1.33517155 14.74645572
  -1.65461311  0.19552398 14.74645572
  -1.91565206  2.92695136 14.74645572
  -0.91902859  1.68140170 17.05688769
  -3.57025153  2.82104793 17.05688769
  -3.23160277 -0.04480163 17.05688815
   0.99663737 -1.63659875 10.12560472
   3.49264249 -2.77624632 10.12560472
   3.23160354 -0.04481894 10.12560472
   4.22822701 -1.29036860 12.43603669
   1.57700407 -0.15072237 12.43603669
   1.91565283 -3.01657193 12.43603715
  -1.57699043 -3.12248665 14.74645572
   0.91901469 -4.26213422 14.74645572
   0.65797574 -1.53070684 14.74645572
   1.65459921 -2.77625650 17.05688769
  -0.99662373 -1.63661027 17.05688769
  -0.65797497 -4.50245983 17.05688815
   0.99663737  1.33517155 14.74645572
   3.49264249  0.19552398 14.74645572
   3.23160354  2.92695136 14.74645572
   4.22822701  1.68140170 17.05688769
   1.57700407  2.82104793 17.05688769
   1.91565283 -0.04480163 17.05688815
  -1.57699043 -0.15071635 19.36730672
   0.91901469 -1.29036392 19.36730672
   0.65797574  1.44106346 19.36730672
   1.65459921  0.19551380 21.67773869
  -0.99662373  1.33516003 21.67773869
  -0.65797497 -1.53068953 21.67773915
   0.00000000 -0.00000008  6.93694490
   0.00000000  2.97177022 11.55779590
  -2.57362780  1.48588232 16.17864690
   2.57362780 -1.48588798 11.55779590
   0.00000000 -2.97177580  9.24738703
   0.00000000 -2.97177588 16.17864690
 


--------------------------------------------------------------------------------------------------------


 k-point  1 :   0.0000 0.0000 0.0000  plane waves:   19995
 k-point  2 :   0.2500 0.0000 0.0000  plane waves:   19926
 k-point  3 :   0.5000 0.0000 0.0000  plane waves:   19944
 k-point  4 :   0.0000 0.2500 0.0000  plane waves:   19926
 k-point  5 :   0.2500 0.2500 0.0000  plane waves:   19954
 k-point  6 :   0.5000 0.2500 0.0000  plane waves:   19932
 k-point  7 :  -0.2500 0.2500-0.0000  plane waves:   19958
 k-point  8 :   0.0000 0.5000 0.0000  plane waves:   19944
 k-point  9 :   0.2500 0.5000 0.0000  plane waves:   19932
 k-point 10 :   0.5000 0.5000 0.0000  plane waves:   19924
 k-point 11 :   0.0000 0.0000 0.2500  plane waves:   19926
 k-point 12 :   0.2500 0.0000 0.2500  plane waves:   19954
 k-point 13 :   0.5000 0.0000 0.2500  plane waves:   19932
 k-point 14 :  -0.2500 0.0000 0.2500  plane waves:   19958
 k-point 15 :   0.0000 0.2500 0.2500  plane waves:   19954
 k-point 16 :   0.2500 0.2500 0.2500  plane waves:   19953
 k-point 17 :   0.5000 0.2500 0.2500  plane waves:   19925
 k-point 18 :  -0.2500 0.2500 0.2500  plane waves:   19935
 k-point 19 :   0.0000 0.5000 0.2500  plane waves:   19932
 k-point 20 :   0.2500 0.5000 0.2500  plane waves:   19925
 k-point 21 :   0.5000 0.5000 0.2500  plane waves:   19915
 k-point 22 :  -0.2500 0.5000 0.2500  plane waves:   19932
 k-point 23 :   0.0000-0.2500 0.2500  plane waves:   19958
 k-point 24 :   0.2500-0.2500 0.2500  plane waves:   19935
 k-point 25 :   0.5000-0.2500 0.2500  plane waves:   19932
 k-point 26 :  -0.2500-0.2500 0.2500  plane waves:   19935
 k-point 27 :   0.0000 0.0000 0.5000  plane waves:   19944
 k-point 28 :   0.2500 0.0000 0.5000  plane waves:   19932
 k-point 29 :   0.5000 0.0000 0.5000  plane waves:   19924
 k-point 30 :   0.0000 0.2500 0.5000  plane waves:   19932
 k-point 31 :   0.2500 0.2500 0.5000  plane waves:   19925
 k-point 32 :   0.5000 0.2500 0.5000  plane waves:   19915
 k-point 33 :  -0.2500 0.2500 0.5000  plane waves:   19932
 k-point 34 :   0.0000 0.5000 0.5000  plane waves:   19924
 k-point 35 :   0.2500 0.5000 0.5000  plane waves:   19915
 k-point 36 :   0.5000 0.5000 0.5000  plane waves:   19910

 maximum and minimum number of plane-waves per node :     19995    19910

 maximum number of plane-waves:     19995
 maximum index in each direction: 
   IXMAX=   19   IYMAX=   19   IZMAX=   19
   IXMIN=  -20   IYMIN=  -20   IZMIN=  -20


 serial   3D FFT for wavefunctions
 parallel 3D FFT for charge:
    minimum data exchange during FFTs selected (reduces bandwidth)


 total amount of memory used by VASP MPI-rank0   204409. kBytes
=======================================================================

   base      :      30000. kBytes
   nonlr-proj:      67877. kBytes
   fftplans  :       5433. kBytes
   grid      :      28026. kBytes
   one-center:       1244. kBytes
   wavefun   :      71829. kBytes
 
     INWAV:  cpu time    0.0000: real time    0.0000
 Broyden mixing: mesh for mixing (old mesh)
   NGX = 39   NGY = 39   NGZ = 39
  (NGX  =160   NGY  =160   NGZ  =160)
  gives a total of  59319 points

 initial charge density was supplied:
 charge density of overlapping atoms calculated
 number of electron     464.0000000 magnetization 
 keeping initial charge density in first step


--------------------------------------------------------------------------------------------------------


 Maximum index for non-local projection operator        13261
 Maximum index for augmentation-charges         1266 (set IRDMAX)


--------------------------------------------------------------------------------------------------------


 First call to EWALD:  gamma=   0.187
 Maximum number of real-space cells 3x 3x 3
 Maximum number of reciprocal cells 3x 3x 3

    FEWALD:  cpu time    0.0026: real time    0.0026


--------------------------------------- Iteration      1(   1)  ---------------------------------------


    POTLOK:  cpu time    0.0810: real time    0.1053
    SETDIJ:  cpu time    0.0116: real time    0.0116
     EDDAV:  cpu time   32.8020: real time   32.7984
 BZINTS: Fermi energy: 19.329687;464.000000 electrons
         Band energy: 305.295148;  BLOECHL correction: -0.021568
       DOS:  cpu time    0.0595: real time    0.0595
    --------------------------------------------
      LOOP:  cpu time   32.9541: real time   32.9748

 eigenvalue-minimisations  : 20736
 total energy-change (2. order) : 0.3749195E+04  (-0.2428417E+05)
 number of electron     464.0000000 magnetization 
 augmentation part      464.0000000 magnetization 

 Free energy of the ion-electron system (eV)
  ---------------------------------------------------
  alpha Z        PSCENC =      1622.31901345
  Ewald energy   TEWEN  =    -26757.39161293
  -Hartree energ DENC   =    -10622.29155154
  -exchange      EXHF   =         0.00000000
  -V(xc)+E(xc)   XCENC  =      1464.89339957
  PAW double counting   =     30201.20122080   -29545.67637776
  entropy T*S    EENTRO =         0.00000000
  eigenvalues    EBANDS =       305.29514837
  atomic energy  EATOM  =     37080.84622879
  Solvation  Ediel_sol  =         0.00000000
  ---------------------------------------------------
  free energy    TOTEN  =      3749.19546873 eV

  energy without entropy =     3749.19546873  energy(sigma->0) =     3749.19546873


--------------------------------------------------------------------------------------------------------




--------------------------------------- Iteration      1(   2)  ---------------------------------------


     EDDAV:  cpu time   42.0783: real time   42.0826
 BZINTS: Fermi energy:  3.163605;464.000000 electrons
         Band energy:***********;  BLOECHL correction:  0.000000
       DOS:  cpu time    0.0131: real time    0.0131
    --------------------------------------------
      LOOP:  cpu time   42.0914: real time   42.0957

 eigenvalue-minimisations  : 28272
 total energy-change (2. order) :-0.4241762E+04  (-0.4148428E+04)
 number of electron     464.0000000 magnetization 
 augmentation part      464.0000000 magnetization 

 Free energy of the ion-electron system (eV)
  ---------------------------------------------------
  alpha Z        PSCENC =      1622.31901345
  Ewald energy   TEWEN  =    -26757.39161293
  -Hartree energ DENC   =    -10622.29155154
  -exchange      EXHF   =         0.00000000
  -V(xc)+E(xc)   XCENC  =      1464.89339957
  PAW double counting   =     30201.20122080   -29545.67637776
  entropy T*S    EENTRO =         0.00000000
  eigenvalues    EBANDS =     -3936.46712894
  atomic energy  EATOM  =     37080.84622879
  Solvation  Ediel_sol  =         0.00000000
  ---------------------------------------------------
  free energy    TOTEN  =      -492.56680858 eV

  energy without entropy =     -492.56680858  energy(sigma->0) =     -492.56680858


--------------------------------------------------------------------------------------------------------




--------------------------------------- Iteration      1(   3)  ---------------------------------------


     EDDAV:  cpu time   41.1461: real time   41.1505
 BZINTS: Fermi energy:  0.193143;464.000000 electrons
         Band energy:***********;  BLOECHL correction:  0.000000
       DOS:  cpu time    0.0098: real time    0.0098
    --------------------------------------------
      LOOP:  cpu time   41.1559: real time   41.1603

 eigenvalue-minimisations  : 27648
 total energy-change (2. order) :-0.2964487E+03  (-0.2938096E+03)
 number of electron     464.0000000 magnetization 
 augmentation part      464.0000000 magnetization 

 Free energy of the ion-electron system (eV)
  ---------------------------------------------------
  alpha Z        PSCENC =      1622.31901345
  Ewald energy   TEWEN  =    -26757.39161293
  -Hartree energ DENC   =    -10622.29155154
  -exchange      EXHF   =         0.00000000
  -V(xc)+E(xc)   XCENC  =      1464.89339957
  PAW double counting   =     30201.20122080   -29545.67637776
  entropy T*S    EENTRO =         0.00000000
  eigenvalues    EBANDS =     -4232.91587003
  atomic energy  EATOM  =     37080.84622879
  Solvation  Ediel_sol  =         0.00000000
  ---------------------------------------------------
  free energy    TOTEN  =      -789.01554967 eV

  energy without entropy =     -789.01554967  energy(sigma->0) =     -789.01554967


--------------------------------------------------------------------------------------------------------




--------------------------------------- Iteration      1(   4)  ---------------------------------------


     EDDAV:  cpu time   54.6478: real time   54.6511
 BZINTS: Fermi energy:  0.212355;464.000000 electrons
         Band energy:***********;  BLOECHL correction:  0.000000
       DOS:  cpu time    0.0097: real time    0.0097
    --------------------------------------------
      LOOP:  cpu time   54.6576: real time   54.6608

 eigenvalue-minimisations  : 38016
 total energy-change (2. order) :-0.2099818E+02  (-0.2096500E+02)
 number of electron     464.0000000 magnetization 
 augmentation part      464.0000000 magnetization 

 Free energy of the ion-electron system (eV)
  ---------------------------------------------------
  alpha Z        PSCENC =      1622.31901345
  Ewald energy   TEWEN  =    -26757.39161293
  -Hartree energ DENC   =    -10622.29155154
  -exchange      EXHF   =         0.00000000
  -V(xc)+E(xc)   XCENC  =      1464.89339957
  PAW double counting   =     30201.20122080   -29545.67637776
  entropy T*S    EENTRO =         0.00000000
  eigenvalues    EBANDS =     -4253.91405199
  atomic energy  EATOM  =     37080.84622879
  Solvation  Ediel_sol  =         0.00000000
  ---------------------------------------------------
  free energy    TOTEN  =      -810.01373163 eV

  energy without entropy =     -810.01373163  energy(sigma->0) =     -810.01373163


--------------------------------------------------------------------------------------------------------




--------------------------------------- Iteration      1(   5)  ---------------------------------------


     EDDAV:  cpu time   48.4004: real time   48.4063
 BZINTS: Fermi energy:  0.135612;464.000000 electrons
         Band energy:***********;  BLOECHL correction:  0.000000
       DOS:  cpu time    0.0098: real time    0.0098
    CHARGE:  cpu time    1.2359: real time    1.2358
    MIXING:  cpu time    0.0016: real time    0.0016
    --------------------------------------------
      LOOP:  cpu time   49.6478: real time   49.6535

 eigenvalue-minimisations  : 33360
 total energy-change (2. order) :-0.4910567E+00  (-0.4909599E+00)
 number of electron     464.0000020 magnetization 
 augmentation part       51.7931933 magnetization 

 Broyden mixing:
  rms(total) = 0.10627E+02    rms(broyden)= 0.10626E+02
  rms(prec ) = 0.12522E+02
  weight for this iteration     100.00

 Free energy of the ion-electron system (eV)
  ---------------------------------------------------
  alpha Z        PSCENC =      1622.31901345
  Ewald energy   TEWEN  =    -26757.39161293
  -Hartree energ DENC   =    -10622.29155154
  -exchange      EXHF   =         0.00000000
  -V(xc)+E(xc)   XCENC  =      1464.89339957
  PAW double counting   =     30201.20122080   -29545.67637776
  entropy T*S    EENTRO =         0.00000000
  eigenvalues    EBANDS =     -4254.40510865
  atomic energy  EATOM  =     37080.84622879
  Solvation  Ediel_sol  =         0.00000000
  ---------------------------------------------------
  free energy    TOTEN  =      -810.50478829 eV

  energy without entropy =     -810.50478829  energy(sigma->0) =     -810.50478829


--------------------------------------------------------------------------------------------------------




--------------------------------------- Iteration      1(   6)  ---------------------------------------


    POTLOK:  cpu time    0.0595: real time    0.0704
    SETDIJ:  cpu time    0.0102: real time    0.0102
    EDDIAG:  cpu time    4.9813: real time    4.9803
  RMM-DIIS:  cpu time   18.5399: real time   18.5374
    ORTHCH:  cpu time    0.6151: real time    0.6151
 BZINTS: Fermi energy:  3.365249;464.000000 electrons
         Band energy:***********;  BLOECHL correction:  0.000000
       DOS:  cpu time    0.0101: real time    0.0101
    CHARGE:  cpu time    1.2371: real time    1.2368
    MIXING:  cpu time    0.0017: real time    0.0017
    --------------------------------------------
      LOOP:  cpu time   25.4549: real time   25.4620

 eigenvalue-minimisations  : 23750
 total energy-change (2. order) : 0.1203947E+03  (-0.6886482E+02)
 number of electron     464.0000015 magnetization 
 augmentation part       44.9591404 magnetization 

 Broyden mixing:
  rms(total) = 0.49441E+01    rms(broyden)= 0.49423E+01
  rms(prec ) = 0.51057E+01
  weight for this iteration     100.00

 eigenvalues of (default mixing * dielectric matrix)
  average eigenvalue GAMMA=   1.1058
  1.1058

 Free energy of the ion-electron system (eV)
  ---------------------------------------------------
  alpha Z        PSCENC =      1622.31901345
  Ewald energy   TEWEN  =    -26757.39161293
  -Hartree energ DENC   =    -11115.44033674
  -exchange      EXHF   =         0.00000000
  -V(xc)+E(xc)   XCENC  =      1518.62182744
  PAW double counting   =     36293.33063135   -35671.46914414
  entropy T*S    EENTRO =         0.00000000
  eigenvalues    EBANDS =     -3660.92665440
  atomic energy  EATOM  =     37080.84622879
  Solvation  Ediel_sol  =         0.00000000
  ---------------------------------------------------
  free energy    TOTEN  =      -690.11004719 eV

  energy without entropy =     -690.11004719  energy(sigma->0) =     -690.11004719


--------------------------------------------------------------------------------------------------------




--------------------------------------- Iteration      1(   7)  ---------------------------------------


    POTLOK:  cpu time    0.0566: real time    0.0646
    SETDIJ:  cpu time    0.0101: real time    0.0101
    EDDIAG:  cpu time    4.9726: real time    4.9719
  RMM-DIIS:  cpu time   20.9447: real time   20.9420
    ORTHCH:  cpu time    0.6131: real time    0.6131
 BZINTS: Fermi energy:  2.962432;464.000000 electrons
         Band energy:***********;  BLOECHL correction:  0.000000
       DOS:  cpu time    0.0098: real time    0.0098
    CHARGE:  cpu time    1.2395: real time    1.2393
    MIXING:  cpu time    0.0016: real time    0.0016
    --------------------------------------------
      LOOP:  cpu time   27.8481: real time   27.8523

 eigenvalue-minimisations  : 24676
 total energy-change (2. order) : 0.9878412E+01  (-0.3367382E+01)
 number of electron     464.0000015 magnetization 
 augmentation part       45.1985294 magnetization 

 Broyden mixing:
  rms(total) = 0.22052E+01    rms(broyden)= 0.22052E+01
  rms(prec ) = 0.23014E+01
  weight for this iteration     100.00

 eigenvalues of (default mixing * dielectric matrix)
  average eigenvalue GAMMA=   1.1681
  0.8960  1.4402

 Free energy of the ion-electron system (eV)
  ---------------------------------------------------
  alpha Z        PSCENC =      1622.31901345
  Ewald energy   TEWEN  =    -26757.39161293
  -Hartree energ DENC   =    -10977.54512028
  -exchange      EXHF   =         0.00000000
  -V(xc)+E(xc)   XCENC  =      1509.51844912
  PAW double counting   =     41468.09920762   -40836.35271798
  entropy T*S    EENTRO =         0.00000000
  eigenvalues    EBANDS =     -3789.72508265
  atomic energy  EATOM  =     37080.84622879
  Solvation  Ediel_sol  =         0.00000000
  ---------------------------------------------------
  free energy    TOTEN  =      -680.23163487 eV

  energy without entropy =     -680.23163487  energy(sigma->0) =     -680.23163487


--------------------------------------------------------------------------------------------------------




--------------------------------------- Iteration      1(   8)  ---------------------------------------


    POTLOK:  cpu time    0.0588: real time    0.0690
    SETDIJ:  cpu time    0.0100: real time    0.0100
    EDDIAG:  cpu time    4.9975: real time    4.9968
  RMM-DIIS:  cpu time   20.4940: real time   20.4917
    ORTHCH:  cpu time    0.6152: real time    0.6152
 BZINTS: Fermi energy:  2.661604;464.000000 electrons
         Band energy:***********;  BLOECHL correction:  0.000000
       DOS:  cpu time    0.0098: real time    0.0098
    CHARGE:  cpu time    1.2378: real time    1.2376
    MIXING:  cpu time    0.0017: real time    0.0017
    --------------------------------------------
      LOOP:  cpu time   27.4248: real time   27.4318

 eigenvalue-minimisations  : 25144
 total energy-change (2. order) : 0.1275286E+00  (-0.1218911E+01)
 number of electron     464.0000015 magnetization 
 augmentation part       45.4375997 magnetization 

 Broyden mixing:
  rms(total) = 0.85997E+00    rms(broyden)= 0.85982E+00
  rms(prec ) = 0.91162E+00
  weight for this iteration     100.00

 eigenvalues of (default mixing * dielectric matrix)
  average eigenvalue GAMMA=   1.3524
  2.1312  0.9630  0.9630

 Free energy of the ion-electron system (eV)
  ---------------------------------------------------
  alpha Z        PSCENC =      1622.31901345
  Ewald energy   TEWEN  =    -26757.39161293
  -Hartree energ DENC   =    -10932.48116677
  -exchange      EXHF   =         0.00000000
  -V(xc)+E(xc)   XCENC  =      1506.64768913
  PAW double counting   =     43832.71596292   -43188.67509563
  entropy T*S    EENTRO =         0.00000000
  eigenvalues    EBANDS =     -3844.08512521
  atomic energy  EATOM  =     37080.84622879
  Solvation  Ediel_sol  =         0.00000000
  ---------------------------------------------------
  free energy    TOTEN  =      -680.10410626 eV

  energy without entropy =     -680.10410626  energy(sigma->0) =     -680.10410626


--------------------------------------------------------------------------------------------------------




--------------------------------------- Iteration      1(   9)  ---------------------------------------


    POTLOK:  cpu time    0.0580: real time    0.0691
    SETDIJ:  cpu time    0.0096: real time    0.0097
    EDDIAG:  cpu time    4.9645: real time    4.9636
  RMM-DIIS:  cpu time   26.6880: real time   26.6850
    ORTHCH:  cpu time    0.6769: real time    0.6768
 BZINTS: Fermi energy:  2.714998;464.000000 electrons
         Band energy:***********;  BLOECHL correction:  0.000000
       DOS:  cpu time    0.0082: real time    0.0082
    CHARGE:  cpu time    1.2379: real time    1.2377
    MIXING:  cpu time    0.0018: real time    0.0018
    --------------------------------------------
      LOOP:  cpu time   33.6448: real time   33.6520

 eigenvalue-minimisations  : 32781
 total energy-change (2. order) : 0.7600105E-01  (-0.2119665E+00)
 number of electron     464.0000015 magnetization 
 augmentation part       45.0968289 magnetization 

 Broyden mixing:
  rms(total) = 0.27466E+00    rms(broyden)= 0.27463E+00
  rms(prec ) = 0.30835E+00
  weight for this iteration     100.00

 eigenvalues of (default mixing * dielectric matrix)
  average eigenvalue GAMMA=   1.4664
  2.3259  1.7347  0.9024  0.9024

 Free energy of the ion-electron system (eV)
  ---------------------------------------------------
  alpha Z        PSCENC =      1622.31901345
  Ewald energy   TEWEN  =    -26757.39161293
  -Hartree energ DENC   =    -10969.20244248
  -exchange      EXHF   =         0.00000000
  -V(xc)+E(xc)   XCENC  =      1509.66077088
  PAW double counting   =     45622.29263167   -44968.30444541
  entropy T*S    EENTRO =         0.00000000
  eigenvalues    EBANDS =     -3820.24824916
  atomic energy  EATOM  =     37080.84622879
  Solvation  Ediel_sol  =         0.00000000
  ---------------------------------------------------
  free energy    TOTEN  =      -680.02810520 eV

  energy without entropy =     -680.02810520  energy(sigma->0) =     -680.02810520


--------------------------------------------------------------------------------------------------------




--------------------------------------- Iteration      1(  10)  ---------------------------------------


    POTLOK:  cpu time    0.0593: real time    0.0688
    SETDIJ:  cpu time    0.0101: real time    0.0101
    EDDIAG:  cpu time    4.9757: real time    4.9749
  RMM-DIIS:  cpu time   25.8149: real time   25.8109
    ORTHCH:  cpu time    0.6151: real time    0.6151
 BZINTS: Fermi energy:  2.723027;464.000000 electrons
         Band energy:***********;  BLOECHL correction:  0.000000
       DOS:  cpu time    0.0082: real time    0.0082
    CHARGE:  cpu time    1.2385: real time    1.2383
    MIXING:  cpu time    0.0017: real time    0.0017
    --------------------------------------------
      LOOP:  cpu time   32.7234: real time   32.7280

 eigenvalue-minimisations  : 32547
 total energy-change (2. order) : 0.3153260E-02  (-0.4260675E-01)
 number of electron     464.0000015 magnetization 
 augmentation part       44.9292680 magnetization 

 Broyden mixing:
  rms(total) = 0.60174E-01    rms(broyden)= 0.60137E-01
  rms(prec ) = 0.68849E-01
  weight for this iteration     100.00

 eigenvalues of (default mixing * dielectric matrix)
  average eigenvalue GAMMA=   1.4272
  2.6271  1.9046  0.9296  0.9296  0.7453

 Free energy of the ion-electron system (eV)
  ---------------------------------------------------
  alpha Z        PSCENC =      1622.31901345
  Ewald energy   TEWEN  =    -26757.39161293
  -Hartree energ DENC   =    -11001.78792383
  -exchange      EXHF   =         0.00000000
  -V(xc)+E(xc)   XCENC  =      1511.13691408
  PAW double counting   =     45696.49166490   -45035.34464345
  entropy T*S    EENTRO =         0.00000000
  eigenvalues    EBANDS =     -3796.29459295
  atomic energy  EATOM  =     37080.84622879
  Solvation  Ediel_sol  =         0.00000000
  ---------------------------------------------------
  free energy    TOTEN  =      -680.02495194 eV

  energy without entropy =     -680.02495194  energy(sigma->0) =     -680.02495194


--------------------------------------------------------------------------------------------------------




--------------------------------------- Iteration      1(  11)  ---------------------------------------


    POTLOK:  cpu time    0.0566: real time    0.0684
    SETDIJ:  cpu time    0.0098: real time    0.0099
    EDDIAG:  cpu time    4.9668: real time    4.9660
  RMM-DIIS:  cpu time   26.3880: real time   26.3849
    ORTHCH:  cpu time    0.6177: real time    0.6176
 BZINTS: Fermi energy:  2.862278;464.000000 electrons
         Band energy:***********;  BLOECHL correction:  0.000000
       DOS:  cpu time    0.0097: real time    0.0097
    CHARGE:  cpu time    1.2307: real time    1.2305
    MIXING:  cpu time    0.0018: real time    0.0018
    --------------------------------------------
      LOOP:  cpu time   33.2811: real time   33.2888

 eigenvalue-minimisations  : 34263
 total energy-change (2. order) :-0.1247580E-01  (-0.1290833E-01)
 number of electron     464.0000015 magnetization 
 augmentation part       44.8592361 magnetization 

 Broyden mixing:
  rms(total) = 0.35393E-01    rms(broyden)= 0.35378E-01
  rms(prec ) = 0.39950E-01
  weight for this iteration     100.00

 eigenvalues of (default mixing * dielectric matrix)
  average eigenvalue GAMMA=   1.5003
  3.1186  1.9583  1.2252  0.9048  0.9048  0.8899

 Free energy of the ion-electron system (eV)
  ---------------------------------------------------
  alpha Z        PSCENC =      1622.31901345
  Ewald energy   TEWEN  =    -26757.39161293
  -Hartree energ DENC   =    -11006.13531744
  -exchange      EXHF   =         0.00000000
  -V(xc)+E(xc)   XCENC  =      1511.33176395
  PAW double counting   =     45758.30347581   -45094.63951383
  entropy T*S    EENTRO =         0.00000000
  eigenvalues    EBANDS =     -3794.67146553
  atomic energy  EATOM  =     37080.84622879
  Solvation  Ediel_sol  =         0.00000000
  ---------------------------------------------------
  free energy    TOTEN  =      -680.03742774 eV

  energy without entropy =     -680.03742774  energy(sigma->0) =     -680.03742774


--------------------------------------------------------------------------------------------------------




--------------------------------------- Iteration      1(  12)  ---------------------------------------


    POTLOK:  cpu time    0.0589: real time    0.0666
    SETDIJ:  cpu time    0.0098: real time    0.0099
    EDDIAG:  cpu time    4.9636: real time    4.9627
  RMM-DIIS:  cpu time   26.3857: real time   26.3826
    ORTHCH:  cpu time    0.6221: real time    0.6220
 BZINTS: Fermi energy:  2.855049;464.000000 electrons
         Band energy:***********;  BLOECHL correction:  0.000000
       DOS:  cpu time    0.0098: real time    0.0098
    CHARGE:  cpu time    1.2315: real time    1.2314
    MIXING:  cpu time    0.0018: real time    0.0018
    --------------------------------------------
      LOOP:  cpu time   33.2832: real time   33.2869

 eigenvalue-minimisations  : 34189
 total energy-change (2. order) :-0.3295351E-02  (-0.4657325E-02)
 number of electron     464.0000015 magnetization 
 augmentation part       44.8140225 magnetization 

 Broyden mixing:
  rms(total) = 0.26782E-01    rms(broyden)= 0.26777E-01
  rms(prec ) = 0.28531E-01
  weight for this iteration     100.00

 eigenvalues of (default mixing * dielectric matrix)
  average eigenvalue GAMMA=   1.5614
  3.3937  2.2550  1.3171  1.3171  0.9301  0.9301  0.7868

 Free energy of the ion-electron system (eV)
  ---------------------------------------------------
  alpha Z        PSCENC =      1622.31901345
  Ewald energy   TEWEN  =    -26757.39161293
  -Hartree energ DENC   =    -11006.76832061
  -exchange      EXHF   =         0.00000000
  -V(xc)+E(xc)   XCENC  =      1511.36926610
  PAW double counting   =     45787.06203528   -45121.45581708
  entropy T*S    EENTRO =         0.00000000
  eigenvalues    EBANDS =     -3796.02151608
  atomic energy  EATOM  =     37080.84622879
  Solvation  Ediel_sol  =         0.00000000
  ---------------------------------------------------
  free energy    TOTEN  =      -680.04072309 eV

  energy without entropy =     -680.04072309  energy(sigma->0) =     -680.04072309


--------------------------------------------------------------------------------------------------------




--------------------------------------- Iteration      1(  13)  ---------------------------------------


    POTLOK:  cpu time    0.0580: real time    0.0650
    SETDIJ:  cpu time    0.0099: real time    0.0099
    EDDIAG:  cpu time    4.9683: real time    4.9676
  RMM-DIIS:  cpu time   26.2741: real time   26.2700
    ORTHCH:  cpu time    0.6191: real time    0.6190
 BZINTS: Fermi energy:  2.847887;464.000000 electrons
         Band energy:***********;  BLOECHL correction:  0.000000
       DOS:  cpu time    0.0098: real time    0.0098
    CHARGE:  cpu time    1.2297: real time    1.2295
    MIXING:  cpu time    0.0019: real time    0.0019
    --------------------------------------------
      LOOP:  cpu time   33.1708: real time   33.1728

 eigenvalue-minimisations  : 34382
 total energy-change (2. order) :-0.9553106E-03  (-0.1681713E-02)
 number of electron     464.0000015 magnetization 
 augmentation part       44.8019470 magnetization 

 Broyden mixing:
  rms(total) = 0.87354E-02    rms(broyden)= 0.87266E-02
  rms(prec ) = 0.10639E-01
  weight for this iteration     100.00

 eigenvalues of (default mixing * dielectric matrix)
  average eigenvalue GAMMA=   1.5402
  2.9239  2.4629  1.6780  1.6780  0.9000  0.9000  0.9755  0.8036

 Free energy of the ion-electron system (eV)
  ---------------------------------------------------
  alpha Z        PSCENC =      1622.31901345
  Ewald energy   TEWEN  =    -26757.39161293
  -Hartree energ DENC   =    -11006.78640414
  -exchange      EXHF   =         0.00000000
  -V(xc)+E(xc)   XCENC  =      1511.31381980
  PAW double counting   =     45789.46869013   -45122.03798021
  entropy T*S    EENTRO =         0.00000000
  eigenvalues    EBANDS =     -3797.77343329
  atomic energy  EATOM  =     37080.84622879
  Solvation  Ediel_sol  =         0.00000000
  ---------------------------------------------------
  free energy    TOTEN  =      -680.04167840 eV

  energy without entropy =     -680.04167840  energy(sigma->0) =     -680.04167840


--------------------------------------------------------------------------------------------------------




--------------------------------------- Iteration      1(  14)  ---------------------------------------


    POTLOK:  cpu time    0.0575: real time    0.0668
    SETDIJ:  cpu time    0.0099: real time    0.0100
    EDDIAG:  cpu time    4.9711: real time    4.9703
  RMM-DIIS:  cpu time   26.4021: real time   26.3982
    ORTHCH:  cpu time    0.6173: real time    0.6173
 BZINTS: Fermi energy:  2.840331;464.000000 electrons
         Band energy:***********;  BLOECHL correction:  0.000000
       DOS:  cpu time    0.0097: real time    0.0097
    CHARGE:  cpu time    1.2298: real time    1.2296
    MIXING:  cpu time    0.0019: real time    0.0019
    --------------------------------------------
      LOOP:  cpu time   33.2994: real time   33.3038

 eigenvalue-minimisations  : 34346
 total energy-change (2. order) :-0.6016126E-03  (-0.8047929E-03)
 number of electron     464.0000015 magnetization 
 augmentation part       44.7795404 magnetization 

 Broyden mixing:
  rms(total) = 0.85251E-02    rms(broyden)= 0.85213E-02
  rms(prec ) = 0.99678E-02
  weight for this iteration     100.00

 eigenvalues of (default mixing * dielectric matrix)
  average eigenvalue GAMMA=   1.4473
  3.1597  2.5003  1.7302  1.7302  0.9010  0.9010  0.9295  0.7944  0.3791

 Free energy of the ion-electron system (eV)
  ---------------------------------------------------
  alpha Z        PSCENC =      1622.31901345
  Ewald energy   TEWEN  =    -26757.39161293
  -Hartree energ DENC   =    -11007.02465016
  -exchange      EXHF   =         0.00000000
  -V(xc)+E(xc)   XCENC  =      1511.34581608
  PAW double counting   =     45791.54891785   -45124.01018741
  entropy T*S    EENTRO =         0.00000000
  eigenvalues    EBANDS =     -3797.67580567
  atomic energy  EATOM  =     37080.84622879
  Solvation  Ediel_sol  =         0.00000000
  ---------------------------------------------------
  free energy    TOTEN  =      -680.04228002 eV

  energy without entropy =     -680.04228002  energy(sigma->0) =     -680.04228002


--------------------------------------------------------------------------------------------------------




--------------------------------------- Iteration      1(  15)  ---------------------------------------


    POTLOK:  cpu time    0.0578: real time    0.0656
    SETDIJ:  cpu time    0.0099: real time    0.0100
    EDDIAG:  cpu time    4.9603: real time    4.9595
  RMM-DIIS:  cpu time   28.1417: real time   28.1376
    ORTHCH:  cpu time    0.6157: real time    0.6157
 BZINTS: Fermi energy:  2.833545;464.000000 electrons
         Band energy:***********;  BLOECHL correction:  0.000000
       DOS:  cpu time    0.0097: real time    0.0097
    CHARGE:  cpu time    1.2287: real time    1.2285
    MIXING:  cpu time    0.0019: real time    0.0019
    --------------------------------------------
      LOOP:  cpu time   35.0257: real time   35.0286

 eigenvalue-minimisations  : 35027
 total energy-change (2. order) :-0.2054751E-03  (-0.2460280E-03)
 number of electron     464.0000015 magnetization 
 augmentation part       44.7705348 magnetization 

 Broyden mixing:
  rms(total) = 0.81258E-02    rms(broyden)= 0.81249E-02
  rms(prec ) = 0.94227E-02
  weight for this iteration     100.00

 eigenvalues of (default mixing * dielectric matrix)
  average eigenvalue GAMMA=   1.3061
  3.1697  2.5014  1.7319  1.7319  0.9010  0.9010  0.9288  0.7947  0.3560  0.0443

 Free energy of the ion-electron system (eV)
  ---------------------------------------------------
  alpha Z        PSCENC =      1622.31901345
  Ewald energy   TEWEN  =    -26757.39161293
  -Hartree energ DENC   =    -11007.25595747
  -exchange      EXHF   =         0.00000000
  -V(xc)+E(xc)   XCENC  =      1511.35183788
  PAW double counting   =     45793.24188782   -45125.49498653
  entropy T*S    EENTRO =         0.00000000
  eigenvalues    EBANDS =     -3797.65889649
  atomic energy  EATOM  =     37080.84622879
  Solvation  Ediel_sol  =         0.00000000
  ---------------------------------------------------
  free energy    TOTEN  =      -680.04248549 eV

  energy without entropy =     -680.04248549  energy(sigma->0) =     -680.04248549


--------------------------------------------------------------------------------------------------------




--------------------------------------- Iteration      1(  16)  ---------------------------------------


    POTLOK:  cpu time    0.0580: real time    0.0651
    SETDIJ:  cpu time    0.0099: real time    0.0100
    EDDIAG:  cpu time    4.9583: real time    4.9576
  RMM-DIIS:  cpu time   26.1451: real time   26.1415
    ORTHCH:  cpu time    0.6156: real time    0.6155
 BZINTS: Fermi energy:  2.826415;464.000000 electrons
         Band energy:***********;  BLOECHL correction:  0.000000
       DOS:  cpu time    0.0098: real time    0.0098
    CHARGE:  cpu time    1.2379: real time    1.2377
    MIXING:  cpu time    0.0021: real time    0.0021
    --------------------------------------------
      LOOP:  cpu time   33.0367: real time   33.0394

 eigenvalue-minimisations  : 33400
 total energy-change (2. order) :-0.9640622E-04  (-0.1021133E-03)
 number of electron     464.0000015 magnetization 
 augmentation part       44.7633456 magnetization 

 Broyden mixing:
  rms(total) = 0.10095E-01    rms(broyden)= 0.10095E-01
  rms(prec ) = 0.11655E-01
  weight for this iteration     100.00

 eigenvalues of (default mixing * dielectric matrix)
  average eigenvalue GAMMA=   1.2390
  3.0350  2.3850  1.6495  1.6495  1.0458  1.0458  0.8944  0.8944  0.8189  0.1054
  0.1054

 Free energy of the ion-electron system (eV)
  ---------------------------------------------------
  alpha Z        PSCENC =      1622.31901345
  Ewald energy   TEWEN  =    -26757.39161293
  -Hartree energ DENC   =    -11007.25413496
  -exchange      EXHF   =         0.00000000
  -V(xc)+E(xc)   XCENC  =      1511.35178799
  PAW double counting   =     45793.22054218   -45125.47541810
  entropy T*S    EENTRO =         0.00000000
  eigenvalues    EBANDS =     -3797.65898831
  atomic energy  EATOM  =     37080.84622879
  Solvation  Ediel_sol  =         0.00000000
  ---------------------------------------------------
  free energy    TOTEN  =      -680.04258190 eV

  energy without entropy =     -680.04258190  energy(sigma->0) =     -680.04258190


--------------------------------------------------------------------------------------------------------




--------------------------------------- Iteration      1(  17)  ---------------------------------------


    POTLOK:  cpu time    0.0585: real time    0.0681
    SETDIJ:  cpu time    0.0099: real time    0.0099
    EDDIAG:  cpu time    4.9552: real time    4.9542
WARNING in EDDRMM: call to ZHEGV failed, returncode =   6  3      5
  RMM-DIIS:  cpu time   26.2813: real time   26.2776
    ORTHCH:  cpu time    0.6149: real time    0.6148
 BZINTS: Fermi energy:  2.818978;464.000000 electrons
         Band energy:***********;  BLOECHL correction:  0.000000
       DOS:  cpu time    0.0097: real time    0.0097
    CHARGE:  cpu time    1.2375: real time    1.2374
    MIXING:  cpu time    0.0023: real time    0.0023
    --------------------------------------------
      LOOP:  cpu time   33.1693: real time   33.1740

 eigenvalue-minimisations  : 34128
 total energy-change (2. order) :-0.4102026E-04  (-0.4305151E-04)
 number of electron     464.0000015 magnetization 
 augmentation part       44.7599836 magnetization 

 Broyden mixing:
  rms(total) = 0.13461E-01    rms(broyden)= 0.13461E-01
  rms(prec ) = 0.15299E-01
  weight for this iteration     100.00

 eigenvalues of (default mixing * dielectric matrix)
  average eigenvalue GAMMA=   1.2752
  3.0591  2.3238  1.7265  1.7265  1.6333  1.0889  0.9077  0.9077  0.8844  0.7788
  0.1326  0.1326

 Free energy of the ion-electron system (eV)
  ---------------------------------------------------
  alpha Z        PSCENC =      1622.31901345
  Ewald energy   TEWEN  =    -26757.39161293
  -Hartree energ DENC   =    -11006.87472216
  -exchange      EXHF   =         0.00000000
  -V(xc)+E(xc)   XCENC  =      1511.33174770
  PAW double counting   =     45791.11383251   -45123.53970244
  entropy T*S    EENTRO =         0.00000000
  eigenvalues    EBANDS =     -3797.84740783
  atomic energy  EATOM  =     37080.84622879
  Solvation  Ediel_sol  =         0.00000000
  ---------------------------------------------------
  free energy    TOTEN  =      -680.04262292 eV

  energy without entropy =     -680.04262292  energy(sigma->0) =     -680.04262292


--------------------------------------------------------------------------------------------------------




--------------------------------------- Iteration      1(  18)  ---------------------------------------


    POTLOK:  cpu time    0.0583: real time    0.0658
    SETDIJ:  cpu time    0.0097: real time    0.0098
    EDDIAG:  cpu time    4.9666: real time    4.9660
WARNING in EDDRMM: call to ZHEGV failed, returncode =   8  4      3
WARNING in EDDRMM: call to ZHEGV failed, returncode =   8  4      3
  RMM-DIIS:  cpu time   27.0326: real time   27.0288
    ORTHCH:  cpu time    0.6204: real time    0.6204
 BZINTS: Fermi energy:  2.811599;464.000000 electrons
         Band energy:***********;  BLOECHL correction:  0.000000
       DOS:  cpu time    0.0097: real time    0.0097
    CHARGE:  cpu time    1.2364: real time    1.2362
    MIXING:  cpu time    0.0023: real time    0.0023
    --------------------------------------------
      LOOP:  cpu time   33.9362: real time   33.9390

 eigenvalue-minimisations  : 33356
 total energy-change (2. order) :-0.3979490E-04  (-0.1952962E-04)
 number of electron     464.0000015 magnetization 
 augmentation part       44.7566009 magnetization 

 Broyden mixing:
  rms(total) = 0.16329E-01    rms(broyden)= 0.16329E-01
  rms(prec ) = 0.18567E-01
  weight for this iteration     100.00

 eigenvalues of (default mixing * dielectric matrix)
  average eigenvalue GAMMA=   1.2955
  3.1671  2.3810  2.3810  1.5812  1.3476  1.3476  0.9979  0.9104  0.9104  0.7813
  0.7813  0.1276  0.1276

[...]
 augmentation part       44.7934189 magnetization 

  free energy =  -0.680398687189E+03  energy without entropy=  -0.680398687189E+03


--------------------------------------------------------------------------------------------------------




------------------------ aborting loop because EDIFF is reached ----------------------------------------


    CHARGE:  cpu time    1.2294: real time    1.2292
    FORLOC:  cpu time    0.0239: real time    0.0239
    FORNL :  cpu time   10.2805: real time   10.2792
    STRESS:  cpu time   30.8338: real time   30.8305
    FORCOR:  cpu time    0.0691: real time    0.0691
    FORHAR:  cpu time    0.0326: real time    0.0326
    MIXING:  cpu time    0.0013: real time    0.0013
    OFIELD:  cpu time    0.0000: real time    0.0000

  FORCE on cell =-STRESS in cart. coord.  units (eV):
  Direction    XX          YY          ZZ          XY          YZ          ZX
  --------------------------------------------------------------------------------------
  Alpha Z  1640.91004  1640.91004  1640.91004
  Ewald   -8874.48224 -8803.50023 -9120.94568    47.88323   -36.99653    92.83321
  Hartree  3623.20019  3691.73467  3715.25934    41.30093   -35.23844    84.42734
  E(xc)   -2187.31123 -2187.33322 -2184.90075     0.07670    -0.01794     0.00217
  Local   -2665.70152 -2805.14008 -2521.42574   -89.42959    72.26435  -177.41216
  n-local -1206.76419 -1206.57053 -1196.14140    -0.51828     0.04177    -0.22285
  augment   515.32766   515.29353   511.84130     0.07625    -0.00784     0.01906
  Kinetic  9154.82070  9154.60942  9155.40509     0.61167    -0.04683     0.35426
  Fock        0.00000     0.00000     0.00000     0.00000     0.00000     0.00000
  -------------------------------------------------------------------------------------
  Total      -0.00060     0.00360     0.00219     0.00091    -0.00146     0.00103
  in kB      -0.00114     0.00687     0.00419     0.00173    -0.00280     0.00196
  external pressure =        0.00 kB  Pullay stress =        0.00 kB



--------------------------------------------------------------------------------------------------------



  FREE ENERGIE OF THE ION-ELECTRON SYSTEM (eV)
  ---------------------------------------------------
  free  energy   TOTEN  =      -680.39868719 eV

  energy  without entropy=     -680.39868719  energy(sigma->0) =     -680.39868719
 
 d Force = 0.9667885E-05[ 0.924E-05, 0.101E-04]  d Energy = 0.1065202E-04-0.984E-06
 d Force = 0.6187829E-01[ 0.619E-01, 0.619E-01]  d Ewald  = 0.9209226E-01-0.302E-01


--------------------------------------------------------------------------------------------------------


    POTLOK:  cpu time    0.0661: real time    0.0662


--------------------------------------------------------------------------------------------------------


 Quasi-Newton relaxation of ions (Broydens 2nd method)
  g(Force)  = 0.536E-05   g(Stress)= 0.473E-08

 retain information from N=  1 steps
 eigenvalues of (default step * inverse Hessian matrix)
  average eigenvalue of G=   5.2085
 eigenvalue spectrum of G is  5.2085


--------------------------------------------------------------------------------------------------------


    WAVPRE:  cpu time    0.0326: real time    0.0355
    FEWALD:  cpu time    0.0022: real time    0.0024
    GENKIN:  cpu time    0.2009: real time    0.2009
    ORTHCH:  cpu time    3.8944: real time    3.8939
     LOOP+:  cpu time  147.8574: real time  147.9593


--------------------------------------- Iteration     29(   1)  ---------------------------------------


    POTLOK:  cpu time    0.0702: real time    0.0732
    SETDIJ:  cpu time    0.0097: real time    0.0097
     EDDAV:  cpu time   37.9505: real time   37.9455
 BZINTS: Fermi energy:  2.906714;464.000000 electrons
         Band energy:***********;  BLOECHL correction:  0.000000
       DOS:  cpu time    0.0082: real time    0.0082
    CHARGE:  cpu time    1.2278: real time    1.2276
    MIXING:  cpu time    0.0012: real time    0.0012
    --------------------------------------------
      LOOP:  cpu time   39.2677: real time   39.2654

 eigenvalue-minimisations  : 25440
 total energy-change (2. order) :-0.8569034E-05  (-0.7673866E-03)
 number of electron     463.9999966 magnetization 
 augmentation part       44.7931937 magnetization 

  free energy =  -0.680398695695E+03  energy without entropy=  -0.680398695695E+03


--------------------------------------------------------------------------------------------------------




--------------------------------------- Iteration     29(   2)  ---------------------------------------


    POTLOK:  cpu time    0.0564: real time    0.0675
    SETDIJ:  cpu time    0.0100: real time    0.0100
    EDDIAG:  cpu time    4.9467: real time    4.9458
  RMM-DIIS:  cpu time   17.6159: real time   17.6145
    ORTHCH:  cpu time    0.6130: real time    0.6129
 BZINTS: Fermi energy:  2.906411;464.000000 electrons
         Band energy:***********;  BLOECHL correction:  0.000000
       DOS:  cpu time    0.0081: real time    0.0081
    CHARGE:  cpu time    1.2287: real time    1.2286
    MIXING:  cpu time    0.0013: real time    0.0013
    --------------------------------------------
      LOOP:  cpu time   24.4801: real time   24.4887

 eigenvalue-minimisations  : 21156
 total energy-change (2. order) :-0.1890441E-04  (-0.2310514E-04)
 number of electron     463.9999966 magnetization 
 augmentation part       44.7934165 magnetization 

 eigenvalues of (default mixing * dielectric matrix)
  average eigenvalue GAMMA=   1.0726
  1.0726

  free energy =  -0.680398714599E+03  energy without entropy=  -0.680398714599E+03


--------------------------------------------------------------------------------------------------------




--------------------------------------- Iteration     29(   3)  ---------------------------------------


    POTLOK:  cpu time    0.0561: real time    0.0656
    SETDIJ:  cpu time    0.0101: real time    0.0101
    EDDIAG:  cpu time    4.9443: real time    4.9436
  RMM-DIIS:  cpu time   21.9442: real time   21.9406
    ORTHCH:  cpu time    0.6130: real time    0.6129
 BZINTS: Fermi energy:  2.906302;464.000000 electrons
         Band energy:***********;  BLOECHL correction:  0.000000
       DOS:  cpu time    0.0081: real time    0.0081
    CHARGE:  cpu time    1.2301: real time    1.2299
    MIXING:  cpu time    0.0014: real time    0.0014
    --------------------------------------------
      LOOP:  cpu time   28.8072: real time   28.8122

 eigenvalue-minimisations  : 26279
 total energy-change (2. order) :-0.1975495E-06  (-0.1935430E-05)
 number of electron     463.9999966 magnetization 
 augmentation part       44.7935472 magnetization 

 eigenvalues of (default mixing * dielectric matrix)
  average eigenvalue GAMMA=   1.2500
  1.2500  1.2500

  free energy =  -0.680398714797E+03  energy without entropy=  -0.680398714797E+03


--------------------------------------------------------------------------------------------------------




--------------------------------------- Iteration     29(   4)  ---------------------------------------


    POTLOK:  cpu time    0.0567: real time    0.0670
    SETDIJ:  cpu time    0.0100: real time    0.0100
    EDDIAG:  cpu time    4.9519: real time    4.9513
  RMM-DIIS:  cpu time   11.9988: real time   11.9971
    ORTHCH:  cpu time    0.6139: real time    0.6138
 BZINTS: Fermi energy:  2.906229;464.000000 electrons
         Band energy:***********;  BLOECHL correction:  0.000000
       DOS:  cpu time    0.0082: real time    0.0082
    --------------------------------------------
      LOOP:  cpu time   17.6394: real time   17.6474

 eigenvalue-minimisations  : 13039
 total energy-change (2. order) : 0.1750377E-06  (-0.2384742E-06)
 number of electron     463.9999966 magnetization 
 augmentation part       44.7935472 magnetization 

  free energy =  -0.680398714622E+03  energy without entropy=  -0.680398714622E+03


--------------------------------------------------------------------------------------------------------




------------------------ aborting loop because EDIFF is reached ----------------------------------------


    CHARGE:  cpu time    1.2310: real time    1.2308
    FORLOC:  cpu time    0.0239: real time    0.0239
    FORNL :  cpu time   10.2696: real time   10.2686
    STRESS:  cpu time   30.8049: real time   30.8007
    FORCOR:  cpu time    0.0686: real time    0.0686
    FORHAR:  cpu time    0.0326: real time    0.0326
    MIXING:  cpu time    0.0013: real time    0.0013
    OFIELD:  cpu time    0.0000: real time    0.0000

  FORCE on cell =-STRESS in cart. coord.  units (eV):
  Direction    XX          YY          ZZ          XY          YZ          ZX
  --------------------------------------------------------------------------------------
  Alpha Z  1640.92989  1640.92989  1640.92989
  Ewald   -8874.60511 -8803.74515 -9120.85642    47.88512   -36.95029    92.77546
  Hartree  3623.14021  3691.61817  3715.17666    41.32004   -35.19988    84.40517
  E(xc)   -2187.31116 -2187.33245 -2184.90212     0.07712    -0.01778     0.00250
  Local   -2665.54851 -2804.80862 -2521.44427   -89.45277    72.18056  -177.33307
  n-local -1206.75674 -1206.56361 -1196.13580    -0.51946     0.04161    -0.22269
  augment   515.32968   515.29502   511.84428     0.07638    -0.00780     0.01896
  Kinetic  9154.82009  9154.60274  9155.38691     0.61339    -0.04431     0.35348
  Fock        0.00000     0.00000     0.00000     0.00000     0.00000     0.00000
  -------------------------------------------------------------------------------------
  Total      -0.00164    -0.00399    -0.00087    -0.00018     0.00210    -0.00019
  in kB      -0.00313    -0.00763    -0.00166    -0.00035     0.00402    -0.00037
  external pressure =       -0.00 kB  Pullay stress =        0.00 kB



--------------------------------------------------------------------------------------------------------



  FREE ENERGIE OF THE ION-ELECTRON SYSTEM (eV)
  ---------------------------------------------------
  free  energy   TOTEN  =      -680.39871462 eV

  energy  without entropy=     -680.39871462  energy(sigma->0) =     -680.39871462
 
 d Force = 0.2649759E-04[ 0.206E-04, 0.324E-04]  d Energy = 0.2743286E-04-0.935E-06
 d Force = 0.1745335E+00[ 0.175E+00, 0.175E+00]  d Ewald  = 0.2785050E+00-0.104E+00


--------------------------------------------------------------------------------------------------------


    POTLOK:  cpu time    0.0662: real time    0.0665


--------------------------------------------------------------------------------------------------------


 Quasi-Newton relaxation of ions (Broydens 2nd method)
  g(Force)  = 0.368E-05   g(Stress)= 0.514E-08

 retain information from N=  1 steps
 eigenvalues of (default step * inverse Hessian matrix)
  average eigenvalue of G=   5.8866
 eigenvalue spectrum of G is  5.8866


--------------------------------------------------------------------------------------------------------


    WAVPRE:  cpu time    0.0325: real time    0.0352
    FEWALD:  cpu time    0.0019: real time    0.0019
    GENKIN:  cpu time    0.2005: real time    0.2005
    ORTHCH:  cpu time    3.9046: real time    3.9042
     LOOP+:  cpu time  156.9040: real time  156.9379


--------------------------------------- Iteration     30(   1)  ---------------------------------------


    POTLOK:  cpu time    0.0654: real time    0.0729
    SETDIJ:  cpu time    0.0095: real time    0.0095
     EDDAV:  cpu time   38.5831: real time   38.5791
 BZINTS: Fermi energy:  2.905505;464.000000 electrons
         Band energy:***********;  BLOECHL correction:  0.000000
       DOS:  cpu time    0.0082: real time    0.0082
    CHARGE:  cpu time    1.2289: real time    1.2287
    MIXING:  cpu time    0.0013: real time    0.0013
    --------------------------------------------
      LOOP:  cpu time   39.8963: real time   39.8997

 eigenvalue-minimisations  : 25920
 total energy-change (2. order) :-0.7634459E-05  (-0.1150066E-03)
 number of electron     463.9999966 magnetization 
 augmentation part       44.7934019 magnetization 

  free energy =  -0.680398722431E+03  energy without entropy=  -0.680398722431E+03


--------------------------------------------------------------------------------------------------------




--------------------------------------- Iteration     30(   2)  ---------------------------------------


    POTLOK:  cpu time    0.0556: real time    0.0668
    SETDIJ:  cpu time    0.0100: real time    0.0101
    EDDIAG:  cpu time    4.9468: real time    4.9463
  RMM-DIIS:  cpu time   18.9211: real time   18.9183
    ORTHCH:  cpu time    0.6233: real time    0.6233
 BZINTS: Fermi energy:  2.904887;464.000000 electrons
         Band energy:***********;  BLOECHL correction:  0.000000
       DOS:  cpu time    0.0081: real time    0.0081
    CHARGE:  cpu time    1.2272: real time    1.2270
    MIXING:  cpu time    0.0013: real time    0.0013
    --------------------------------------------
      LOOP:  cpu time   25.7934: real time   25.8012

 eigenvalue-minimisations  : 22349
 total energy-change (2. order) :-0.2591696E-05  (-0.3253958E-05)
 number of electron     463.9999966 magnetization 
 augmentation part       44.7934905 magnetization 

 eigenvalues of (default mixing * dielectric matrix)
  average eigenvalue GAMMA=   1.0023
  1.0023

  free energy =  -0.680398725023E+03  energy without entropy=  -0.680398725023E+03


--------------------------------------------------------------------------------------------------------




--------------------------------------- Iteration     30(   3)  ---------------------------------------


    POTLOK:  cpu time    0.0564: real time    0.0641
    SETDIJ:  cpu time    0.0099: real time    0.0100
    EDDIAG:  cpu time    4.9453: real time    4.9442
  RMM-DIIS:  cpu time   12.0386: real time   12.0370
    ORTHCH:  cpu time    0.6208: real time    0.6208
 BZINTS: Fermi energy:  2.904779;464.000000 electrons
         Band energy:***********;  BLOECHL correction:  0.000000
       DOS:  cpu time    0.0081: real time    0.0081
    CHARGE:  cpu time    1.2280: real time    1.2278
    MIXING:  cpu time    0.0014: real time    0.0014
    --------------------------------------------
      LOOP:  cpu time   18.9086: real time   18.9134

 eigenvalue-minimisations  : 11594
 total energy-change (2. order) : 0.1817898E-06  (-0.1949171E-06)
 number of electron     463.9999966 magnetization 
 augmentation part       44.7934841 magnetization 

 eigenvalues of (default mixing * dielectric matrix)
  average eigenvalue GAMMA=   0.7513
  0.7513  0.7513

  free energy =  -0.680398724841E+03  energy without entropy=  -0.680398724841E+03


--------------------------------------------------------------------------------------------------------




--------------------------------------- Iteration     30(   4)  ---------------------------------------


    POTLOK:  cpu time    0.0556: real time    0.0665
    SETDIJ:  cpu time    0.0101: real time    0.0101
    EDDIAG:  cpu time    4.9479: real time    4.9468
  RMM-DIIS:  cpu time   11.7935: real time   11.7921
    ORTHCH:  cpu time    0.6121: real time    0.6121
 BZINTS: Fermi energy:  2.904648;464.000000 electrons
         Band energy:***********;  BLOECHL correction:  0.000000
       DOS:  cpu time    0.0082: real time    0.0082
    --------------------------------------------
      LOOP:  cpu time   17.4274: real time   17.4356

 eigenvalue-minimisations  : 10998
 total energy-change (2. order) :-0.3747118E-07  (-0.5577889E-07)
 number of electron     463.9999966 magnetization 
 augmentation part       44.7934841 magnetization 

  free energy =  -0.680398724879E+03  energy without entropy=  -0.680398724879E+03


--------------------------------------------------------------------------------------------------------




------------------------ aborting loop because EDIFF is reached ----------------------------------------


    CHARGE:  cpu time    1.2301: real time    1.2300
    FORLOC:  cpu time    0.0240: real time    0.0240
    FORNL :  cpu time   10.2616: real time   10.2603
    STRESS:  cpu time   30.8476: real time   30.8440
    FORCOR:  cpu time    0.0684: real time    0.0684
    FORHAR:  cpu time    0.0325: real time    0.0325
    MIXING:  cpu time    0.0013: real time    0.0013
    OFIELD:  cpu time    0.0000: real time    0.0000

  FORCE on cell =-STRESS in cart. coord.  units (eV):
  Direction    XX          YY          ZZ          XY          YZ          ZX
  --------------------------------------------------------------------------------------
  Alpha Z  1640.94006  1640.94006  1640.94006
  Ewald   -8874.65381 -8803.79254 -9120.82151    47.90478   -36.95510    92.76739
  Hartree  3623.13538  3691.60551  3715.15358    41.33793   -35.19567    84.40341
  E(xc)   -2187.31192 -2187.33328 -2184.90386     0.07725    -0.01766     0.00256
  Local   -2665.50704 -2804.76038 -2521.45901   -89.49100    72.18171  -177.32323
  n-local -1206.76006 -1206.56732 -1196.13775    -0.52063     0.04148    -0.22285
  augment   515.32884   515.29406   511.84295     0.07642    -0.00781     0.01895
  Kinetic  9154.83114  9154.61341  9155.38677     0.61448    -0.04478     0.35377
  Fock        0.00000     0.00000     0.00000     0.00000     0.00000     0.00000
  -------------------------------------------------------------------------------------
  Total       0.00259    -0.00048     0.00123    -0.00076     0.00216    -0.00001
  in kB       0.00494    -0.00091     0.00235    -0.00145     0.00413    -0.00001
  external pressure =        0.00 kB  Pullay stress =        0.00 kB



--------------------------------------------------------------------------------------------------------



  FREE ENERGIE OF THE ION-ELECTRON SYSTEM (eV)
  ---------------------------------------------------
  free  energy   TOTEN  =      -680.39872488 eV

  energy  without entropy=     -680.39872488  energy(sigma->0) =     -680.39872488
 
 d Force = 0.1017790E-04[ 0.952E-05, 0.108E-04]  d Energy = 0.1025687E-04-0.790E-07
 d Force = 0.7478537E-02[ 0.747E-02, 0.748E-02]  d Ewald  = 0.6119463E-01-0.537E-01


--------------------------------------------------------------------------------------------------------


    POTLOK:  cpu time    0.0661: real time    0.0663


--------------------------------------------------------------------------------------------------------


 Quasi-Newton relaxation of ions (Broydens 2nd method)
  g(Force)  = 0.313E-05   g(Stress)= 0.342E-08

 retain information from N=  2 steps
 eigenvalues of (default step * inverse Hessian matrix)
  average eigenvalue of G=   4.3110
 eigenvalue spectrum of G is  4.3110  4.3110


--------------------------------------------------------------------------------------------------------


  
 reached required accuracy - stopping structural energy minimisation
     LOOP+:  cpu time  144.6235: real time  144.6901
    4ORBIT:  cpu time    0.0000: real time    0.0000

 total amount of memory used by VASP MPI-rank0   204409. kBytes
=======================================================================

   base      :      30000. kBytes
   nonlr-proj:      67877. kBytes
   fftplans  :       5433. kBytes
   grid      :      28026. kBytes
   one-center:       1244. kBytes
   wavefun   :      71829. kBytes
 
  
  
 General timing and accounting informations for this job:
 ========================================================
  
                  Total CPU time used (sec):     8111.917
                            User time (sec):     8012.772
                          System time (sec):       99.146
                         Elapsed time (sec):     8115.607
  
                   Maximum memory used (kb):      442372.
                   Average memory used (kb):           0.
  
                          Minor page faults:     20858916
                          Major page faults:            0
                 Voluntary context switches:        77027
