<?xml version="1.0" encoding="ISO-8859-1"?>
<modeling>
 <generator>
  <i name="program" type="string">vasp </i>
  <i name="version" type="string">5.4.4.18Apr17-6-g9f103f2a35  </i>
  <i name="subversion" type="string">(build Mar 05 2020 17:21:05) complex            parallel </i>
  <i name="platform" type="string">Linux justhpc1_p2018-05-16 </i>
  <i name="date" type="string">2024 04 10 </i>
  <i name="time" type="string">04:40:26 </i>
 </generator>
 <incar>
  <i type="string" name="SYSTEM"> Li(NbTa)O_3</i>
  <i type="int" name="ISTART">     0</i>
  <i type="string" name="PREC">accurate</i>
  <i type="string" name="ALGO">  Fast</i>
  <i name="AMIX">      0.40000000</i>
  <i name="AMIN">      0.10000000</i>
  <i type="int" name="ICHARG">     2</i>
  <i type="int" name="INIWAV">     1</i>
  <i type="int" name="NELM">  1000</i>
  <i type="int" name="NELMIN">     4</i>
  <i type="int" name="IBRION">     1</i>
  <i name="EDIFF">      0.00000100</i>
  <i name="EDIFFG">     -0.00500000</i>
  <i type="int" name="NSW">   200</i>
  <i type="int" name="ISIF">     3</i>
  <i name="ENCUT">    475.00000000</i>
  <i name="POTIM">      0.15000000</i>
  <i type="string" name="LREAL">    A</i>
  <i type="int" name="ISMEAR">    -5</i>
  <i name="SIGMA">      0.05000000</i>
  <i type="int" name="NWRITE">     0</i>
  <i type="logical" name="LWAVE"> F  </i>
  <i type="logical" name="LCHARG"> F  </i>
  <i type="logical" name="LVTOT"> F  </i>
  <i type="logical" name="LVHAR"> F  </i>
  <i type="logical" name="LELF"> F  </i>
  <v type="int" name="KPOINT_BSE">    -1     0     0     0</v>
  <i type="int" name="NELM">  1000</i>
  <i type="string" name="GGA"> PS</i>
 </incar>
 <structure name="primitive_cell" >
  <crystal>
   <varray name="basis" >
    <v>       5.14725560      -2.97177580       9.24170200 </v>
    <v>       0.00000000       5.94354060       9.24170200 </v>
    <v>      -5.14725560      -2.97177580       9.24170200 </v>
   </varray>
   <i name="volume">    848.19254623 </i>
   <varray name="rec_basis" >
    <v>       0.09713914      -0.05608326       0.03606837 </v>
    <v>       0.00000000       0.11216652       0.03606844 </v>
    <v>      -0.09713914      -0.05608326       0.03606837 </v>
   </varray>
  </crystal>
  <varray name="positions" >
   <v>       0.14094405       0.14094430       0.14094405 </v>
   <v>       0.30381165       0.11019005      -0.06835810 </v>
   <v>       0.11018940      -0.06835760       0.30381175 </v>
   <v>      -0.06835800       0.30381225       0.11018930 </v>
   <v>       0.18164285       0.36018755       0.05381245 </v>
   <v>       0.05381235       0.18164315       0.36018735 </v>
   <v>       0.36018730       0.05381285       0.18164270 </v>
   <v>       0.25020430       0.25020475       0.25020430 </v>
   <v>       0.00020505      -0.49979495       0.00020505 </v>
   <v>      -0.49979495       0.00020505       0.00020505 </v>
   <v>       0.00020505       0.00020505      -0.49979495 </v>
   <v>      -0.19618835       0.11019005       0.43164190 </v>
   <v>       0.43164200      -0.19618775       0.11018930 </v>
   <v>       0.11018940       0.43164240      -0.19618825 </v>
   <v>       0.25020430      -0.24979525       0.25020430 </v>
   <v>       0.25020430       0.25020475      -0.24979570 </v>
   <v>      -0.24979570       0.25020475       0.25020430 </v>
   <v>      -0.13981270       0.05381285       0.18164270 </v>
   <v>       0.18164285      -0.13981245       0.05381245 </v>
   <v>       0.05381235       0.18164315      -0.13981265 </v>
   <v>       0.39094295      -0.10905635       0.39094295 </v>
   <v>      -0.10905705       0.39094365       0.39094295 </v>
   <v>       0.39094295       0.39094365      -0.10905705 </v>
   <v>      -0.10905705      -0.10905635       0.39094295 </v>
   <v>       0.39094295      -0.10905635      -0.10905705 </v>
   <v>      -0.10905705       0.39094365      -0.10905705 </v>
   <v>       0.00020505       0.00020505       0.00020505 </v>
   <v>      -0.44618765       0.18164315      -0.13981265 </v>
   <v>      -0.13981270      -0.44618715       0.18164270 </v>
   <v>       0.18164285      -0.13981245      -0.44618755 </v>
   <v>       0.11018940       0.43164240       0.30381175 </v>
   <v>       0.43164200       0.30381225       0.11018930 </v>
   <v>       0.30381165       0.11019005       0.43164190 </v>
   <v>      -0.06835800      -0.19618775      -0.38981070 </v>
   <v>      -0.38981060      -0.06835760      -0.19618825 </v>
   <v>      -0.19618835      -0.38980995      -0.06835810 </v>
   <v>       0.30381165      -0.38980995       0.43164190 </v>
   <v>       0.43164200       0.30381225      -0.38981070 </v>
   <v>      -0.38981060       0.43164240       0.30381175 </v>
   <v>       0.36018730       0.05381285      -0.31835730 </v>
   <v>       0.05381235      -0.31835685       0.36018735 </v>
   <v>      -0.31835715       0.36018755       0.05381245 </v>
   <v>      -0.13981270       0.05381285      -0.31835730 </v>
   <v>      -0.31835715      -0.13981245       0.05381245 </v>
   <v>       0.05381235      -0.31835685      -0.13981265 </v>
   <v>      -0.31835715       0.36018755      -0.44618755 </v>
   <v>       0.36018730      -0.44618715      -0.31835730 </v>
   <v>      -0.44618765      -0.31835685       0.36018735 </v>
   <v>      -0.35905595       0.14094430      -0.35905595 </v>
   <v>       0.14094405      -0.35905570      -0.35905595 </v>
   <v>      -0.35905595      -0.35905570       0.14094405 </v>
   <v>      -0.06835800       0.30381225      -0.38981070 </v>
   <v>      -0.38981060      -0.06835760       0.30381175 </v>
   <v>       0.30381165      -0.38980995      -0.06835810 </v>
   <v>       0.36018730      -0.44618715       0.18164270 </v>
   <v>      -0.44618765       0.18164315       0.36018735 </v>
   <v>       0.18164285       0.36018755      -0.44618755 </v>
   <v>       0.14094405      -0.35905570       0.14094405 </v>
   <v>       0.14094405       0.14094430      -0.35905595 </v>
   <v>      -0.35905595       0.14094430       0.14094405 </v>
   <v>      -0.06835800      -0.19618775       0.11018930 </v>
   <v>       0.11018940      -0.06835760      -0.19618825 </v>
   <v>      -0.19618835       0.11019005      -0.06835810 </v>
   <v>      -0.31835715      -0.13981245      -0.44618755 </v>
   <v>      -0.44618765      -0.31835685      -0.13981265 </v>
   <v>      -0.13981270      -0.44618715      -0.31835730 </v>
   <v>      -0.38981060       0.43164240      -0.19618825 </v>
   <v>      -0.19618835      -0.38980995       0.43164190 </v>
   <v>       0.43164200      -0.19618775      -0.38981070 </v>
   <v>      -0.24979570       0.25020475      -0.24979570 </v>
   <v>      -0.24979570      -0.24979525       0.25020430 </v>
   <v>       0.25020430      -0.24979525      -0.24979570 </v>
   <v>      -0.49979495      -0.49979495      -0.49979495 </v>
   <v>       0.00020505      -0.49979495      -0.49979495 </v>
   <v>      -0.49979495      -0.49979495       0.00020505 </v>
   <v>      -0.49979495       0.00020505      -0.49979495 </v>
   <v>      -0.24979570      -0.24979525      -0.24979570 </v>
   <v>      -0.10905705      -0.10905635      -0.10905705 </v>
   <v>       0.39094295       0.39094365       0.39094295 </v>
   <v>      -0.35905595      -0.35905570      -0.35905595 </v>
  </varray>
 </structure>
 <varray name="primitive_index" >
  <v type="int" >        1 </v>
  <v type="int" >       38 </v>
  <v type="int" >       43 </v>
  <v type="int" >       54 </v>
  <v type="int" >       29 </v>
  <v type="int" >       27 </v>
  <v type="int" >       28 </v>
  <v type="int" >       75 </v>
  <v type="int" >       20 </v>
  <v type="int" >       22 </v>
  <v type="int" >       18 </v>
  <v type="int" >       56 </v>
  <v type="int" >       42 </v>
  <v type="int" >       37 </v>
  <v type="int" >       76 </v>
  <v type="int" >       19 </v>
  <v type="int" >       78 </v>
  <v type="int" >       52 </v>
  <v type="int" >       41 </v>
  <v type="int" >       33 </v>
  <v type="int" >        6 </v>
  <v type="int" >       10 </v>
  <v type="int" >        4 </v>
  <v type="int" >       14 </v>
  <v type="int" >        8 </v>
  <v type="int" >       12 </v>
  <v type="int" >       17 </v>
  <v type="int" >       57 </v>
  <v type="int" >       64 </v>
  <v type="int" >       47 </v>
  <v type="int" >       31 </v>
  <v type="int" >       30 </v>
  <v type="int" >       32 </v>
  <v type="int" >       72 </v>
  <v type="int" >       73 </v>
  <v type="int" >       74 </v>
  <v type="int" >       44 </v>
  <v type="int" >       36 </v>
  <v type="int" >       55 </v>
  <v type="int" >       34 </v>
  <v type="int" >       39 </v>
  <v type="int" >       53 </v>
  <v type="int" >       58 </v>
  <v type="int" >       65 </v>
  <v type="int" >       45 </v>
  <v type="int" >       59 </v>
  <v type="int" >       46 </v>
  <v type="int" >       63 </v>
  <v type="int" >       11 </v>
  <v type="int" >        7 </v>
  <v type="int" >       13 </v>
  <v type="int" >       60 </v>
  <v type="int" >       67 </v>
  <v type="int" >       50 </v>
  <v type="int" >       40 </v>
  <v type="int" >       51 </v>
  <v type="int" >       35 </v>
  <v type="int" >        5 </v>
  <v type="int" >        3 </v>
  <v type="int" >        9 </v>
  <v type="int" >       66 </v>
  <v type="int" >       49 </v>
  <v type="int" >       62 </v>
  <v type="int" >       71 </v>
  <v type="int" >       69 </v>
  <v type="int" >       70 </v>
  <v type="int" >       61 </v>
  <v type="int" >       68 </v>
  <v type="int" >       48 </v>
  <v type="int" >       80 </v>
  <v type="int" >       24 </v>
  <v type="int" >       77 </v>
  <v type="int" >       25 </v>
  <v type="int" >       21 </v>
  <v type="int" >       23 </v>
  <v type="int" >       79 </v>
  <v type="int" >       26 </v>
  <v type="int" >       16 </v>
  <v type="int" >        2 </v>
  <v type="int" >       15 </v>
 </varray>
 <kpoints>
  <generation param="Gamma">
   <v type="int" name="divisions">       4        4        4 </v>
   <v name="usershift">      0.00000000       0.00000000       0.00000000 </v>
   <v name="genvec1">      0.25000000       0.00000000       0.00000000 </v>
   <v name="genvec2">     -0.00000000       0.25000000      -0.00000000 </v>
   <v name="genvec3">      0.00000000       0.00000000       0.25000000 </v>
   <v name="shift">      0.00000000       0.00000000       0.00000000 </v>
  </generation>
  <varray name="kpointlist" >
   <v>       0.00000000       0.00000000       0.00000000 </v>
   <v>       0.25000000       0.00000000       0.00000000 </v>
   <v>       0.50000000       0.00000000       0.00000000 </v>
   <v>       0.00000000       0.25000000       0.00000000 </v>
   <v>       0.25000000       0.25000000       0.00000000 </v>
   <v>       0.50000000       0.25000000       0.00000000 </v>
   <v>      -0.25000000       0.25000000      -0.00000000 </v>
   <v>       0.00000000       0.50000000       0.00000000 </v>
   <v>       0.25000000       0.50000000       0.00000000 </v>
   <v>       0.50000000       0.50000000       0.00000000 </v>
   <v>       0.00000000       0.00000000       0.25000000 </v>
   <v>       0.25000000       0.00000000       0.25000000 </v>
   <v>       0.50000000       0.00000000       0.25000000 </v>
   <v>      -0.25000000       0.00000000       0.25000000 </v>
   <v>       0.00000000       0.25000000       0.25000000 </v>
   <v>       0.25000000       0.25000000       0.25000000 </v>
   <v>       0.50000000       0.25000000       0.25000000 </v>
   <v>      -0.25000000       0.25000000       0.25000000 </v>
   <v>       0.00000000       0.50000000       0.25000000 </v>
   <v>       0.25000000       0.50000000       0.25000000 </v>
   <v>       0.50000000       0.50000000       0.25000000 </v>
   <v>      -0.25000000       0.50000000       0.25000000 </v>
   <v>       0.00000000      -0.25000000       0.25000000 </v>
   <v>       0.25000000      -0.25000000       0.25000000 </v>
   <v>       0.50000000      -0.25000000       0.25000000 </v>
   <v>      -0.25000000      -0.25000000       0.25000000 </v>
   <v>       0.00000000       0.00000000       0.50000000 </v>
   <v>       0.25000000       0.00000000       0.50000000 </v>
   <v>       0.50000000       0.00000000       0.50000000 </v>
   <v>       0.00000000       0.25000000       0.50000000 </v>
   <v>       0.25000000       0.25000000       0.50000000 </v>
   <v>       0.50000000       0.25000000       0.50000000 </v>
   <v>      -0.25000000       0.25000000       0.50000000 </v>
   <v>       0.00000000       0.50000000       0.50000000 </v>
   <v>       0.25000000       0.50000000       0.50000000 </v>
   <v>       0.50000000       0.50000000       0.50000000 </v>
  </varray>
  <varray name="weights" >
   <v>       0.01562500 </v>
   <v>       0.03125000 </v>
   <v>       0.01562500 </v>
   <v>       0.03125000 </v>
   <v>       0.03125000 </v>
   <v>       0.03125000 </v>
   <v>       0.03125000 </v>
   <v>       0.01562500 </v>
   <v>       0.03125000 </v>
   <v>       0.01562500 </v>
   <v>       0.03125000 </v>
   <v>       0.03125000 </v>
   <v>       0.03125000 </v>
   <v>       0.03125000 </v>
   <v>       0.03125000 </v>
   <v>       0.03125000 </v>
   <v>       0.03125000 </v>
   <v>       0.03125000 </v>
   <v>       0.03125000 </v>
   <v>       0.03125000 </v>
   <v>       0.03125000 </v>
   <v>       0.03125000 </v>
   <v>       0.03125000 </v>
   <v>       0.03125000 </v>
   <v>       0.03125000 </v>
   <v>       0.03125000 </v>
   <v>       0.01562500 </v>
   <v>       0.03125000 </v>
   <v>       0.01562500 </v>
   <v>       0.03125000 </v>
   <v>       0.03125000 </v>
   <v>       0.03125000 </v>
   <v>       0.03125000 </v>
   <v>       0.01562500 </v>
   <v>       0.03125000 </v>
   <v>       0.01562500 </v>
  </varray>
  <varray name="tetrahedronlist"  type="int" >
   <v type="int" >        2        1        4        5       16 </v>
   <v type="int" >        2        1        2        5       16 </v>
   <v type="int" >        2        1        2       12       16 </v>
   <v type="int" >        2        1        4       15       16 </v>
   <v type="int" >        2        1       11       15       16 </v>
   <v type="int" >        2        1       11       12       16 </v>
   <v type="int" >        2        2        5        6       17 </v>
   <v type="int" >        2        2        3        6       17 </v>
   <v type="int" >        2        2        3       13       17 </v>
   <v type="int" >        2        2        5       16       17 </v>
   <v type="int" >        2        2       12       16       17 </v>
   <v type="int" >        2        2       12       13       17 </v>
   <v type="int" >        2        3        6        7       18 </v>
   <v type="int" >        2        2        3        7       18 </v>
   <v type="int" >        2        2        3       14       18 </v>
   <v type="int" >        2        3        6       17       18 </v>
   <v type="int" >        2        3       13       17       18 </v>
   <v type="int" >        2        3       13       14       18 </v>
   <v type="int" >        2        2        4        7       15 </v>
   <v type="int" >        2        1        2        4       15 </v>
   <v type="int" >        2        1        2       11       15 </v>
   <v type="int" >        2        2        7       15       18 </v>
   <v type="int" >        2        2       14       15       18 </v>
   <v type="int" >        2        2       11       14       15 </v>
   <v type="int" >        2        4        8        9       20 </v>
   <v type="int" >        2        4        5        9       20 </v>
   <v type="int" >        2        4        5       16       20 </v>
   <v type="int" >        2        4        8       19       20 </v>
   <v type="int" >        2        4       15       19       20 </v>
   <v type="int" >        2        4       15       16       20 </v>
   <v type="int" >        2        5        9       10       21 </v>
   <v type="int" >        2        5        6       10       21 </v>
   <v type="int" >        2        5        6       17       21 </v>
   <v type="int" >        2        5        9       20       21 </v>
   <v type="int" >        2        5       16       20       21 </v>
   <v type="int" >        2        5       16       17       21 </v>
   <v type="int" >        2        6        9       10       22 </v>
   <v type="int" >        2        6        7        9       22 </v>
   <v type="int" >        2        6        7       18       22 </v>
   <v type="int" >        2        6       10       21       22 </v>
   <v type="int" >        2        6       17       21       22 </v>
   <v type="int" >        2        6       17       18       22 </v>
   <v type="int" >        2        7        8        9       19 </v>
   <v type="int" >        2        4        7        8       19 </v>
   <v type="int" >        2        4        7       15       19 </v>
   <v type="int" >        2        7        9       19       22 </v>
   <v type="int" >        2        7       18       19       22 </v>
   <v type="int" >        2        7       15       18       19 </v>
   <v type="int" >        2        4        7        8       24 </v>
   <v type="int" >        2        7        8        9       24 </v>
   <v type="int" >        2        8        9       20       24 </v>
   <v type="int" >        2        4        8       23       24 </v>
   <v type="int" >        2        8       19       23       24 </v>
   <v type="int" >        2        8       19       20       24 </v>
   <v type="int" >        2        6        7        9       25 </v>
   <v type="int" >        2        6        9       10       25 </v>
   <v type="int" >        2        9       10       21       25 </v>
   <v type="int" >        2        7        9       24       25 </v>
   <v type="int" >        2        9       20       24       25 </v>
   <v type="int" >        2        9       20       21       25 </v>
   <v type="int" >        2        5        6       10       26 </v>
   <v type="int" >        2        5        9       10       26 </v>
   <v type="int" >        2        9       10       22       26 </v>
   <v type="int" >        2        6       10       25       26 </v>
   <v type="int" >        2       10       21       25       26 </v>
   <v type="int" >        2       10       21       22       26 </v>
   <v type="int" >        2        4        5        9       23 </v>
   <v type="int" >        2        4        8        9       23 </v>
   <v type="int" >        2        8        9       19       23 </v>
   <v type="int" >        2        5        9       23       26 </v>
   <v type="int" >        2        9       22       23       26 </v>
   <v type="int" >        2        9       19       22       23 </v>
   <v type="int" >        2        1        2        4       12 </v>
   <v type="int" >        2        2        4        7       12 </v>
   <v type="int" >        2        4        7       12       24 </v>
   <v type="int" >        2        1        4       11       12 </v>
   <v type="int" >        2        4       11       12       23 </v>
   <v type="int" >        2        4       12       23       24 </v>
   <v type="int" >        2        2        3        7       13 </v>
   <v type="int" >        2        3        6        7       13 </v>
   <v type="int" >        2        6        7       13       25 </v>
   <v type="int" >        2        2        7       12       13 </v>
   <v type="int" >        2        7       12       13       24 </v>
   <v type="int" >        2        7       13       24       25 </v>
   <v type="int" >        2        2        3        6       14 </v>
   <v type="int" >        2        2        5        6       14 </v>
   <v type="int" >        2        5        6       14       26 </v>
   <v type="int" >        2        3        6       13       14 </v>
   <v type="int" >        2        6       13       14       25 </v>
   <v type="int" >        2        6       14       25       26 </v>
   <v type="int" >        2        1        2        5       11 </v>
   <v type="int" >        2        1        4        5       11 </v>
   <v type="int" >        2        4        5       11       23 </v>
   <v type="int" >        2        2        5       11       14 </v>
   <v type="int" >        2        5       11       14       26 </v>
   <v type="int" >        2        5       11       23       26 </v>
   <v type="int" >        2       11       15       16       31 </v>
   <v type="int" >        2       11       12       16       31 </v>
   <v type="int" >        2       11       12       28       31 </v>
   <v type="int" >        2       11       15       30       31 </v>
   <v type="int" >        2       11       27       30       31 </v>
   <v type="int" >        2       11       27       28       31 </v>
   <v type="int" >        2       12       16       17       32 </v>
   <v type="int" >        2       12       13       17       32 </v>
   <v type="int" >        2       12       13       29       32 </v>
   <v type="int" >        2       12       16       31       32 </v>
   <v type="int" >        2       12       28       31       32 </v>
   <v type="int" >        2       12       28       29       32 </v>
   <v type="int" >        2       13       17       18       33 </v>
   <v type="int" >        2       13       14       18       33 </v>
   <v type="int" >        2       13       14       28       33 </v>
   <v type="int" >        2       13       17       32       33 </v>
   <v type="int" >        2       13       29       32       33 </v>
   <v type="int" >        2       13       28       29       33 </v>
   <v type="int" >        2       14       15       18       30 </v>
   <v type="int" >        2       11       14       15       30 </v>
   <v type="int" >        2       11       14       27       30 </v>
   <v type="int" >        2       14       18       30       33 </v>
   <v type="int" >        2       14       28       30       33 </v>
   <v type="int" >        2       14       27       28       30 </v>
   <v type="int" >        2       15       19       20       35 </v>
   <v type="int" >        2       15       16       20       35 </v>
   <v type="int" >        2       15       16       31       35 </v>
   <v type="int" >        2       15       19       34       35 </v>
   <v type="int" >        2       15       30       34       35 </v>
   <v type="int" >        2       15       30       31       35 </v>
   <v type="int" >        2       16       20       21       36 </v>
   <v type="int" >        2       16       17       21       36 </v>
   <v type="int" >        2       16       17       32       36 </v>
   <v type="int" >        2       16       20       35       36 </v>
   <v type="int" >        2       16       31       35       36 </v>
   <v type="int" >        2       16       31       32       36 </v>
   <v type="int" >        2       17       21       22       35 </v>
   <v type="int" >        2       17       18       22       35 </v>
   <v type="int" >        2       17       18       33       35 </v>
   <v type="int" >        2       17       21       35       36 </v>
   <v type="int" >        2       17       32       35       36 </v>
   <v type="int" >        2       17       32       33       35 </v>
   <v type="int" >        2       18       19       22       34 </v>
   <v type="int" >        2       15       18       19       34 </v>
   <v type="int" >        2       15       18       30       34 </v>
   <v type="int" >        2       18       22       34       35 </v>
   <v type="int" >        2       18       33       34       35 </v>
   <v type="int" >        2       18       30       33       34 </v>
   <v type="int" >        2       19       23       24       33 </v>
   <v type="int" >        2       19       20       24       33 </v>
   <v type="int" >        2       19       20       33       35 </v>
   <v type="int" >        2       19       23       30       33 </v>
   <v type="int" >        2       19       30       33       34 </v>
   <v type="int" >        2       19       33       34       35 </v>
   <v type="int" >        2       20       24       25       32 </v>
   <v type="int" >        2       20       21       25       32 </v>
   <v type="int" >        2       20       21       32       36 </v>
   <v type="int" >        2       20       24       32       33 </v>
   <v type="int" >        2       20       32       33       35 </v>
   <v type="int" >        2       20       32       35       36 </v>
   <v type="int" >        2       21       25       26       31 </v>
   <v type="int" >        2       21       22       26       31 </v>
   <v type="int" >        2       21       22       31       35 </v>
   <v type="int" >        2       21       25       31       32 </v>
   <v type="int" >        2       21       31       32       36 </v>
   <v type="int" >        2       21       31       35       36 </v>
   <v type="int" >        2       22       23       26       30 </v>
   <v type="int" >        2       19       22       23       30 </v>
   <v type="int" >        2       19       22       30       34 </v>
   <v type="int" >        2       22       26       30       31 </v>
   <v type="int" >        2       22       30       31       35 </v>
   <v type="int" >        2       22       30       34       35 </v>
   <v type="int" >        2       11       12       23       28 </v>
   <v type="int" >        2       12       23       24       28 </v>
   <v type="int" >        2       23       24       28       33 </v>
   <v type="int" >        2       11       23       27       28 </v>
   <v type="int" >        2       23       27       28       30 </v>
   <v type="int" >        2       23       28       30       33 </v>
   <v type="int" >        2       12       13       24       29 </v>
   <v type="int" >        2       13       24       25       29 </v>
   <v type="int" >        2       24       25       29       32 </v>
   <v type="int" >        2       12       24       28       29 </v>
   <v type="int" >        2       24       28       29       33 </v>
   <v type="int" >        2       24       29       32       33 </v>
   <v type="int" >        2       13       14       25       28 </v>
   <v type="int" >        2       14       25       26       28 </v>
   <v type="int" >        2       25       26       28       31 </v>
   <v type="int" >        2       13       25       28       29 </v>
   <v type="int" >        2       25       28       29       32 </v>
   <v type="int" >        2       25       28       31       32 </v>
   <v type="int" >        2       11       14       26       27 </v>
   <v type="int" >        2       11       23       26       27 </v>
   <v type="int" >        2       23       26       27       30 </v>
   <v type="int" >        2       14       26       27       28 </v>
   <v type="int" >        2       26       27       28       31 </v>
   <v type="int" >        2       26       27       30       31 </v>
  </varray>
  <i name="volumeweight">      0.00260417 </i>
 </kpoints>
 <parameters>
  <separator name="general" >
   <i type="string" name="SYSTEM">Li(NbTa)O_3</i>
   <i type="logical" name="LCOMPAT"> F  </i>
  </separator>
  <separator name="electronic" >
   <i type="string" name="PREC">accura</i>
   <i name="ENMAX">    475.00000000</i>
   <i name="ENAUG">    605.39200000</i>
   <i name="EDIFF">      0.00000100</i>
   <i type="int" name="IALGO">    68</i>
   <i type="int" name="IWAVPR">    11</i>
   <i type="int" name="NBANDS">   288</i>
   <i name="NELECT">    464.00000000</i>
   <i type="int" name="TURBO">     0</i>
   <i type="int" name="IRESTART">     0</i>
   <i type="int" name="NREBOOT">     0</i>
   <i type="int" name="NMIN">     0</i>
   <i name="EREF">      0.00000000</i>
   <separator name="electronic smearing" >
    <i type="int" name="ISMEAR">    -5</i>
    <i name="SIGMA">      0.05000000</i>
    <i name="KSPACING">      0.50000000</i>
    <i type="logical" name="KGAMMA"> T  </i>
   </separator>
   <separator name="electronic projectors" >
    <i type="logical" name="LREAL"> T  </i>
    <v name="ROPT">     -0.00025000     -0.00025000     -0.00025000     -0.00025000</v>
    <i type="int" name="LMAXPAW">  -100</i>
    <i type="int" name="LMAXMIX">     2</i>
    <i type="logical" name="NLSPLINE"> F  </i>
   </separator>
   <separator name="electronic startup" >
    <i type="int" name="ISTART">     0</i>
    <i type="int" name="ICHARG">     2</i>
    <i type="int" name="INIWAV">     1</i>
   </separator>
   <separator name="electronic spin" >
    <i type="int" name="ISPIN">     1</i>
    <i type="logical" name="LNONCOLLINEAR"> F  </i>
    <v name="MAGMOM">      1.00000000      1.00000000      1.00000000      1.00000000      1.00000000      1.00000000      1.00000000      1.00000000      1.00000000      1.00000000      1.00000000      1.00000000      1.00000000      1.00000000      1.00000000      1.00000000      1.00000000      1.00000000      1.00000000      1.00000000
      1.00000000      1.00000000      1.00000000      1.00000000      1.00000000      1.00000000      1.00000000      1.00000000      1.00000000      1.00000000      1.00000000      1.00000000      1.00000000      1.00000000      1.00000000      1.00000000      1.00000000      1.00000000      1.00000000      1.00000000
      1.00000000      1.00000000      1.00000000      1.00000000      1.00000000      1.00000000      1.00000000      1.00000000      1.00000000      1.00000000      1.00000000      1.00000000      1.00000000      1.00000000      1.00000000      1.00000000      1.00000000      1.00000000      1.00000000      1.00000000
      1.00000000      1.00000000      1.00000000      1.00000000      1.00000000      1.00000000      1.00000000      1.00000000      1.00000000      1.00000000      1.00000000      1.00000000      1.00000000      1.00000000      1.00000000      1.00000000      1.00000000      1.00000000      1.00000000      1.00000000
</v>
    <i name="NUPDOWN">     -1.00000000</i>
    <i type="logical" name="LSORBIT"> F  </i>
    <v name="SAXIS">      0.00000000      0.00000000      1.00000000</v>
    <i type="logical" name="LSPIRAL"> F  </i>
    <v name="QSPIRAL">      0.00000000      0.00000000      0.00000000</v>
    <i type="logical" name="LZEROZ"> F  </i>
   </separator>
   <separator name="electronic exchange-correlation" >
    <i type="logical" name="LASPH"> F  </i>
    <i type="logical" name="LMETAGGA"> F  </i>
   </separator>
   <separator name="electronic convergence" >
    <i type="int" name="NELM">  1000</i>
    <i type="int" name="NELMDL">    -5</i>
    <i type="int" name="NELMIN">     4</i>
    <i name="ENINI">    475.00000000</i>
    <separator name="electronic convergence detail" >
     <i type="logical" name="LDIAG"> T  </i>
     <i type="logical" name="LSUBROT"> F  </i>
     <i name="WEIMIN">      0.00100000</i>
     <i name="EBREAK">      0.00000000</i>
     <i name="DEPER">      0.30000000</i>
     <i type="int" name="NRMM">     4</i>
     <i name="TIME">      0.40000000</i>
    </separator>
   </separator>
   <separator name="electronic mixer" >
    <i name="AMIX">      0.40000000</i>
    <i name="BMIX">      1.00000000</i>
    <i name="AMIN">      0.10000000</i>
    <i name="AMIX_MAG">      1.60000000</i>
    <i name="BMIX_MAG">      1.00000000</i>
    <separator name="electronic mixer details" >
     <i type="int" name="IMIX">     4</i>
     <i type="logical" name="MIXFIRST"> F  </i>
     <i type="int" name="MAXMIX">   -45</i>
     <i name="WC">    100.00000000</i>
     <i type="int" name="INIMIX">     1</i>
     <i type="int" name="MIXPRE">     1</i>
     <i type="int" name="MREMOVE">     5</i>
    </separator>
   </separator>
   <separator name="electronic dipolcorrection" >
    <i type="logical" name="LDIPOL"> F  </i>
    <i type="logical" name="LMONO"> F  </i>
    <i type="int" name="IDIPOL">     0</i>
    <i name="EPSILON">      1.00000000</i>
    <v name="DIPOL">   -100.00000000   -100.00000000   -100.00000000</v>
    <i name="EFIELD">      0.00000000</i>
   </separator>
  </separator>
  <separator name="grids" >
   <i type="int" name="NGX">    80</i>
   <i type="int" name="NGY">    80</i>
   <i type="int" name="NGZ">    80</i>
   <i type="int" name="NGXF">   160</i>
   <i type="int" name="NGYF">   160</i>
   <i type="int" name="NGZF">   160</i>
   <i type="logical" name="ADDGRID"> F  </i>
  </separator>
  <separator name="ionic" >
   <i type="int" name="NSW">   200</i>
   <i type="int" name="IBRION">     1</i>
   <i type="int" name="MDALGO">     0</i>
   <i type="int" name="ISIF">     3</i>
   <i name="PSTRESS">      0.00000000</i>
   <i name="EDIFFG">     -0.00500000</i>
   <i type="int" name="NFREE">     0</i>
   <i name="POTIM">      0.15000000</i>
   <i name="SMASS">     -3.00000000</i>
   <i name="SCALEE">      1.00000000</i>
  </separator>
  <separator name="ionic md" >
   <i name="TEBEG">      0.00010000</i>
   <i name="TEEND">      0.00010000</i>
   <i type="int" name="NBLOCK">     1</i>
   <i type="int" name="KBLOCK">   200</i>
   <i type="int" name="NPACO">   256</i>
   <i name="APACO">     16.00000000</i>
  </separator>
  <separator name="symmetry" >
   <i type="int" name="ISYM">     2</i>
   <i name="SYMPREC">      0.00001000</i>
  </separator>
  <separator name="dos" >
   <i type="int" name="LORBIT">     0</i>
   <v name="RWIGS">     -1.00000000     -1.00000000     -1.00000000     -1.00000000</v>
   <i type="int" name="NEDOS">   301</i>
   <i name="EMIN">     10.00000000</i>
   <i name="EMAX">    -10.00000000</i>
   <i name="EFERMI">      0.00000000</i>
  </separator>
  <separator name="writing" >
   <i type="int" name="NWRITE">     0</i>
   <i type="logical" name="LWAVE"> F  </i>
   <i type="logical" name="LDOWNSAMPLE"> F  </i>
   <i type="logical" name="LCHARG"> F  </i>
   <i type="logical" name="LPARD"> F  </i>
   <i type="logical" name="LVTOT"> F  </i>
   <i type="logical" name="LVHAR"> F  </i>
   <i type="logical" name="LELF"> F  </i>
   <i type="logical" name="LOPTICS"> F  </i>
   <v name="STM">      0.00000000      0.00000000      0.00000000      0.00000000      0.00000000      0.00000000      0.00000000</v>
  </separator>
  <separator name="performance" >
   <i type="int" name="NPAR">    48</i>
   <i type="int" name="NSIM">     4</i>
   <i type="int" name="NBLK">    -1</i>
   <i type="logical" name="LPLANE"> T  </i>
   <i type="logical" name="LSCALAPACK"> F  </i>
   <i type="logical" name="LSCAAWARE"> F  </i>
   <i type="logical" name="LSCALU"> F  </i>
   <i type="logical" name="LASYNC"> F  </i>
   <i type="logical" name="LORBITALREAL"> F  </i>
  </separator>
  <separator name="miscellaneous" >
   <i type="int" name="IDIOT">     3</i>
   <i type="int" name="ISPECIAL">     0</i>
   <i type="logical" name="LMUSIC"> F  </i>
   <v name="POMASS">      7.01000000     92.91000000     16.00000000    180.94800000</v>
   <v name="DARWINR">      0.00000000      0.00000000      0.00000000      0.00000000</v>
   <v name="DARWINV">      1.00000000      1.00000000      1.00000000      1.00000000</v>
   <i type="logical" name="LCORR"> T  </i>
  </separator>
  <i type="logical" name="GGA_COMPAT"> T  </i>
  <i type="logical" name="LBERRY"> F  </i>
  <i type="int" name="ICORELEVEL">     0</i>
  <i type="logical" name="LDAU"> F  </i>
  <i type="int" name="I_CONSTRAINED_M">     0</i>
  <separator name="electronic exchange-correlation" >
   <i type="string" name="GGA">PS</i>
   <i type="int" name="VOSKOWN">     0</i>
   <i type="logical" name="LHFCALC"> F  </i>
   <i type="string" name="PRECFOCK"></i>
   <i type="logical" name="LSYMGRAD"> F  </i>
   <i type="logical" name="LHFONE"> F  </i>
   <i type="logical" name="LRHFCALC"> F  </i>
   <i type="logical" name="LTHOMAS"> F  </i>
   <i type="logical" name="LMODELHF"> F  </i>
   <i name="ENCUT4O">     -1.00000000</i>
   <i type="int" name="EXXOEP">     0</i>
   <i type="int" name="FOURORBIT">     0</i>
   <i name="AEXX">      0.00000000</i>
   <i name="HFALPHA">      0.00000000</i>
   <i name="MCALPHA">      0.00000000</i>
   <i name="ALDAX">      1.00000000</i>
   <i name="AGGAX">      1.00000000</i>
   <i name="ALDAC">      1.00000000</i>
   <i name="AGGAC">      1.00000000</i>
   <i type="int" name="NKREDX">     1</i>
   <i type="int" name="NKREDY">     1</i>
   <i type="int" name="NKREDZ">     1</i>
   <i type="logical" name="SHIFTRED"> F  </i>
   <i type="logical" name="ODDONLY"> F  </i>
   <i type="logical" name="EVENONLY"> F  </i>
   <i type="int" name="LMAXFOCK">     0</i>
   <i type="int" name="NMAXFOCKAE">     0</i>
   <i type="logical" name="LFOCKAEDFT"> F  </i>
   <i name="HFSCREEN">      0.00000000</i>
   <i name="HFSCREENC">      0.00000000</i>
   <i type="int" name="NBANDSGWLOW">     0</i>
  </separator>
  <separator name="vdW DFT" >
   <i type="logical" name="LUSE_VDW"> F  </i>
   <i name="Zab_VDW">     -0.84910000</i>
   <i name="PARAM1">      0.12340000</i>
   <i name="PARAM2">      1.00000000</i>
   <i name="PARAM3">      0.00000000</i>
  </separator>
  <separator name="model GW" >
   <i type="int" name="MODEL_GW">     0</i>
   <i name="MODEL_EPS0">      6.36144410</i>
   <i name="MODEL_ALPHA">      1.00000000</i>
  </separator>
  <separator name="linear response parameters" >
   <i type="logical" name="LEPSILON"> F  </i>
   <i type="logical" name="LRPA"> F  </i>
   <i type="logical" name="LNABLA"> F  </i>
   <i type="logical" name="LVEL"> F  </i>
   <i type="int" name="KINTER">     0</i>
   <i name="CSHIFT">      0.10000000</i>
   <i name="OMEGAMAX">     -1.00000000</i>
   <i name="DEG_THRESHOLD">      0.00200000</i>
   <i name="RTIME">     -0.10000000</i>
   <i name="WPLASMAI">      0.00000000</i>
   <v name="DFIELD">      0.00000000      0.00000000      0.00000000</v>
   <v name="WPLASMA">      0.00000000      0.00000000      0.00000000      0.00000000      0.00000000      0.00000000      0.00000000      0.00000000      0.00000000</v>
  </separator>
  <separator name="orbital magnetization" >
   <i type="logical" name="NUCIND"> F  </i>
   <v name="MAGPOS">      0.00000000      0.00000000      0.00000000</v>
   <i type="logical" name="LNICSALL"> T  </i>
   <i type="logical" name="ORBITALMAG"> F  </i>
   <i type="logical" name="LMAGBLOCH"> F  </i>
   <i type="logical" name="LCHIMAG"> F  </i>
   <i type="logical" name="LGAUGE"> T  </i>
   <i type="int" name="MAGATOM">     0</i>
   <v name="MAGDIPOL">      0.00000000      0.00000000      0.00000000</v>
   <v name="AVECCONST">      0.00000000      0.00000000      0.00000000</v>
  </separator>
  <separator name="response functions" >
   <i type="logical" name="LADDER"> F  </i>
   <i type="logical" name="LRPAFORCE"> F  </i>
   <i type="logical" name="LFXC"> F  </i>
   <i type="logical" name="LHARTREE"> T  </i>
   <i type="int" name="IBSE">     0</i>
   <v type="int" name="KPOINT">    -1     0     0     0</v>
   <i type="logical" name="LTCTE"> F  </i>
   <i type="logical" name="LTETE"> F  </i>
   <i type="logical" name="LTRIPLET"> F  </i>
   <i type="logical" name="LFXCEPS"> F  </i>
   <i type="logical" name="LFXHEG"> F  </i>
   <i type="int" name="NATURALO">     2</i>
   <i type="logical" name="L2ORDER"> F  </i>
   <i type="logical" name="LMP2LT"> F  </i>
   <i type="logical" name="LUSEW"> F  </i>
   <i name="ENCUTGW">     -2.00000000</i>
   <i name="ENCUTGWSOFT">     -2.00000000</i>
   <i name="ENCUTLF">     -1.00000000</i>
   <i type="int" name="LMAXMP2">    -1</i>
   <i name="SCISSOR">      0.00000000</i>
   <i type="int" name="NOMEGA">     0</i>
   <i type="int" name="NOMEGAR">     0</i>
   <i type="int" name="NBANDSGW">    -1</i>
   <i type="int" name="NBANDSO">    -1</i>
   <i type="int" name="NBANDSV">    -1</i>
   <i type="int" name="NELM">  1000</i>
   <i type="int" name="NELMHF">     1</i>
   <i type="int" name="DIM">     3</i>
   <i type="int" name="ANTIRES">     0</i>
   <i name="OMEGAMAX">    -30.00000000</i>
   <i name="OMEGAMIN">    -30.00000000</i>
   <i name="OMEGATL">   -200.00000000</i>
   <i type="int" name="OMEGAGRID">   140</i>
   <i name="CSHIFT">     -0.10000000</i>
   <i type="logical" name="SELFENERGY"> F  </i>
   <i type="logical" name="LSPECTRAL"> F  </i>
   <i type="logical" name="LSPECTRALGW"> F  </i>
   <i type="logical" name="LSINGLES"> F  </i>
   <i type="logical" name="LFERMIGW"> F  </i>
   <i type="logical" name="ODDONLYGW"> F  </i>
   <i type="logical" name="EVENONLYGW"> F  </i>
   <i type="int" name="NKREDLFX">     1</i>
   <i type="int" name="NKREDLFY">     1</i>
   <i type="int" name="NKREDLFZ">     1</i>
   <i type="int" name="MAXMEM">  2800</i>
   <i type="int" name="TELESCOPE">     0</i>
   <i type="int" name="TAUPAR">     1</i>
   <i type="int" name="OMEGAPAR">    -1</i>
   <i name="LAMBDA">      1.00000000</i>
  </separator>
  <separator name="External order field" >
   <i name="OFIELD_KAPPA">      0.00000000</i>
   <v name="OFIELD_K">      0.00000000      0.00000000      0.00000000</v>
   <i name="OFIELD_Q6_NEAR">      0.00000000</i>
   <i name="OFIELD_Q6_FAR">      0.00000000</i>
   <i name="OFIELD_A">      0.00000000</i>
  </separator>
 </parameters>
 <atominfo>
  <atoms>      80 </atoms>
  <types>       4 </types>
  <array name="atoms" >
   <dimension dim="1">ion</dimension>
   <field type="string">element</field>
   <field type="int">atomtype</field>
   <set>
    <rc><c>Li</c><c>   1</c></rc>
    <rc><c>Li</c><c>   1</c></rc>
    <rc><c>Li</c><c>   1</c></rc>
    <rc><c>Li</c><c>   1</c></rc>
    <rc><c>Li</c><c>   1</c></rc>
    <rc><c>Li</c><c>   1</c></rc>
    <rc><c>Li</c><c>   1</c></rc>
    <rc><c>Li</c><c>   1</c></rc>
    <rc><c>Li</c><c>   1</c></rc>
    <rc><c>Li</c><c>   1</c></rc>
    <rc><c>Li</c><c>   1</c></rc>
    <rc><c>Li</c><c>   1</c></rc>
    <rc><c>Li</c><c>   1</c></rc>
    <rc><c>Li</c><c>   1</c></rc>
    <rc><c>Li</c><c>   1</c></rc>
    <rc><c>Li</c><c>   1</c></rc>
    <rc><c>Nb</c><c>   2</c></rc>
    <rc><c>Nb</c><c>   2</c></rc>
    <rc><c>Nb</c><c>   2</c></rc>
    <rc><c>Nb</c><c>   2</c></rc>
    <rc><c>Nb</c><c>   2</c></rc>
    <rc><c>Nb</c><c>   2</c></rc>
    <rc><c>Nb</c><c>   2</c></rc>
    <rc><c>Nb</c><c>   2</c></rc>
    <rc><c>Nb</c><c>   2</c></rc>
    <rc><c>Nb</c><c>   2</c></rc>
    <rc><c>O </c><c>   3</c></rc>
    <rc><c>O </c><c>   3</c></rc>
    <rc><c>O </c><c>   3</c></rc>
    <rc><c>O </c><c>   3</c></rc>
    <rc><c>O </c><c>   3</c></rc>
    <rc><c>O </c><c>   3</c></rc>
    <rc><c>O </c><c>   3</c></rc>
    <rc><c>O </c><c>   3</c></rc>
    <rc><c>O </c><c>   3</c></rc>
    <rc><c>O </c><c>   3</c></rc>
    <rc><c>O </c><c>   3</c></rc>
    <rc><c>O </c><c>   3</c></rc>
    <rc><c>O </c><c>   3</c></rc>
    <rc><c>O </c><c>   3</c></rc>
    <rc><c>O </c><c>   3</c></rc>
    <rc><c>O </c><c>   3</c></rc>
    <rc><c>O </c><c>   3</c></rc>
    <rc><c>O </c><c>   3</c></rc>
    <rc><c>O </c><c>   3</c></rc>
    <rc><c>O </c><c>   3</c></rc>
    <rc><c>O </c><c>   3</c></rc>
    <rc><c>O </c><c>   3</c></rc>
    <rc><c>O </c><c>   3</c></rc>
    <rc><c>O </c><c>   3</c></rc>
    <rc><c>O </c><c>   3</c></rc>
    <rc><c>O </c><c>   3</c></rc>
    <rc><c>O </c><c>   3</c></rc>
    <rc><c>O </c><c>   3</c></rc>
    <rc><c>O </c><c>   3</c></rc>
    <rc><c>O </c><c>   3</c></rc>
    <rc><c>O </c><c>   3</c></rc>
    <rc><c>O </c><c>   3</c></rc>
    <rc><c>O </c><c>   3</c></rc>
    <rc><c>O </c><c>   3</c></rc>
    <rc><c>O </c><c>   3</c></rc>
    <rc><c>O </c><c>   3</c></rc>
    <rc><c>O </c><c>   3</c></rc>
    <rc><c>O </c><c>   3</c></rc>
    <rc><c>O </c><c>   3</c></rc>
    <rc><c>O </c><c>   3</c></rc>
    <rc><c>O </c><c>   3</c></rc>
    <rc><c>O </c><c>   3</c></rc>
    <rc><c>O </c><c>   3</c></rc>
    <rc><c>O </c><c>   3</c></rc>
    <rc><c>O </c><c>   3</c></rc>
    <rc><c>O </c><c>   3</c></rc>
    <rc><c>O </c><c>   3</c></rc>
    <rc><c>O </c><c>   3</c></rc>
    <rc><c>Ta</c><c>   4</c></rc>
    <rc><c>Ta</c><c>   4</c></rc>
    <rc><c>Ta</c><c>   4</c></rc>
    <rc><c>Ta</c><c>   4</c></rc>
    <rc><c>Ta</c><c>   4</c></rc>
    <rc><c>Ta</c><c>   4</c></rc>
   </set>
  </array>
  <array name="atomtypes" >
   <dimension dim="1">type</dimension>
   <field type="int">atomspertype</field>
   <field type="string">element</field>
   <field>mass</field>
   <field>valence</field>
   <field type="string">pseudopotential</field>
   <set>
    <rc><c>  16</c><c>Li</c><c>      7.01000000</c><c>      1.00000000</c><c>  PAW_PBE Li 17Jan2003                  </c></rc>
    <rc><c>  10</c><c>Nb</c><c>     92.91000000</c><c>     13.00000000</c><c>  PAW_PBE Nb_sv 25May2007               </c></rc>
    <rc><c>  48</c><c>O </c><c>     16.00000000</c><c>      6.00000000</c><c>  PAW_PBE O 08Apr2002                   </c></rc>
    <rc><c>   6</c><c>Ta</c><c>    180.94800000</c><c>      5.00000000</c><c>  PAW_PBE Ta 17Jan2003                  </c></rc>
   </set>
  </array>
 </atominfo>
 <structure name="initialpos" >
  <crystal>
   <varray name="basis" >
    <v>       5.14725560      -2.97177580       9.24170200 </v>
    <v>       0.00000000       5.94354060       9.24170200 </v>
    <v>      -5.14725560      -2.97177580       9.24170200 </v>
   </varray>
   <i name="volume">    848.19254623 </i>
   <varray name="rec_basis" >
    <v>       0.09713914      -0.05608326       0.03606837 </v>
    <v>       0.00000000       0.11216652       0.03606844 </v>
    <v>      -0.09713914      -0.05608326       0.03606837 </v>
   </varray>
  </crystal>
  <varray name="positions" >
   <v>       0.14094405       0.14094430       0.14094405 </v>
   <v>       0.39094295       0.39094365       0.39094295 </v>
   <v>       0.14094405       0.14094430       0.64094405 </v>
   <v>       0.39094295       0.39094365       0.89094295 </v>
   <v>       0.14094405       0.64094430       0.14094405 </v>
   <v>       0.39094295       0.89094365       0.39094295 </v>
   <v>       0.14094405       0.64094430       0.64094405 </v>
   <v>       0.39094295       0.89094365       0.89094295 </v>
   <v>       0.64094405       0.14094430       0.14094405 </v>
   <v>       0.89094295       0.39094365       0.39094295 </v>
   <v>       0.64094405       0.14094430       0.64094405 </v>
   <v>       0.89094295       0.39094365       0.89094295 </v>
   <v>       0.64094405       0.64094430       0.14094405 </v>
   <v>       0.89094295       0.89094365       0.39094295 </v>
   <v>       0.64094405       0.64094430       0.64094405 </v>
   <v>       0.89094295       0.89094365       0.89094295 </v>
   <v>       0.00020505       0.00020505       0.00020505 </v>
   <v>       0.00020505       0.00020505       0.50020505 </v>
   <v>       0.25020430       0.25020475       0.75020430 </v>
   <v>       0.00020505       0.50020505       0.00020505 </v>
   <v>       0.00020505       0.50020505       0.50020505 </v>
   <v>       0.50020505       0.00020505       0.00020505 </v>
   <v>       0.50020505       0.50020505       0.00020505 </v>
   <v>       0.75020430       0.75020475       0.25020430 </v>
   <v>       0.50020505       0.50020505       0.50020505 </v>
   <v>       0.75020430       0.75020475       0.75020430 </v>
   <v>       0.05381235       0.18164315       0.36018735 </v>
   <v>       0.36018730       0.05381285       0.18164270 </v>
   <v>       0.18164285       0.36018755       0.05381245 </v>
   <v>       0.43164200       0.30381225       0.11018930 </v>
   <v>       0.11018940       0.43164240       0.30381175 </v>
   <v>       0.30381165       0.11019005       0.43164190 </v>
   <v>       0.05381235       0.18164315       0.86018735 </v>
   <v>       0.36018730       0.05381285       0.68164270 </v>
   <v>       0.18164285       0.36018755       0.55381245 </v>
   <v>       0.43164200       0.30381225       0.61018930 </v>
   <v>       0.11018940       0.43164240       0.80381175 </v>
   <v>       0.30381165       0.11019005       0.93164190 </v>
   <v>       0.05381235       0.68164315       0.36018735 </v>
   <v>       0.36018730       0.55381285       0.18164270 </v>
   <v>       0.18164285       0.86018755       0.05381245 </v>
   <v>       0.43164200       0.80381225       0.11018930 </v>
   <v>       0.11018940       0.93164240       0.30381175 </v>
   <v>       0.30381165       0.61019005       0.43164190 </v>
   <v>       0.05381235       0.68164315       0.86018735 </v>
   <v>       0.36018730       0.55381285       0.68164270 </v>
   <v>       0.18164285       0.86018755       0.55381245 </v>
   <v>       0.43164200       0.80381225       0.61018930 </v>
   <v>       0.11018940       0.93164240       0.80381175 </v>
   <v>       0.30381165       0.61019005       0.93164190 </v>
   <v>       0.55381235       0.18164315       0.36018735 </v>
   <v>       0.86018730       0.05381285       0.18164270 </v>
   <v>       0.68164285       0.36018755       0.05381245 </v>
   <v>       0.93164200       0.30381225       0.11018930 </v>
   <v>       0.61018940       0.43164240       0.30381175 </v>
   <v>       0.80381165       0.11019005       0.43164190 </v>
   <v>       0.55381235       0.18164315       0.86018735 </v>
   <v>       0.86018730       0.05381285       0.68164270 </v>
   <v>       0.68164285       0.36018755       0.55381245 </v>
   <v>       0.93164200       0.30381225       0.61018930 </v>
   <v>       0.61018940       0.43164240       0.80381175 </v>
   <v>       0.80381165       0.11019005       0.93164190 </v>
   <v>       0.55381235       0.68164315       0.36018735 </v>
   <v>       0.86018730       0.55381285       0.18164270 </v>
   <v>       0.68164285       0.86018755       0.05381245 </v>
   <v>       0.93164200       0.80381225       0.11018930 </v>
   <v>       0.61018940       0.93164240       0.30381175 </v>
   <v>       0.80381165       0.61019005       0.43164190 </v>
   <v>       0.55381235       0.68164315       0.86018735 </v>
   <v>       0.86018730       0.55381285       0.68164270 </v>
   <v>       0.68164285       0.86018755       0.55381245 </v>
   <v>       0.93164200       0.80381225       0.61018930 </v>
   <v>       0.61018940       0.93164240       0.80381175 </v>
   <v>       0.80381165       0.61019005       0.93164190 </v>
   <v>       0.25020430       0.25020475       0.25020430 </v>
   <v>       0.25020430       0.75020475       0.25020430 </v>
   <v>       0.25020430       0.75020475       0.75020430 </v>
   <v>       0.75020430       0.25020475       0.25020430 </v>
   <v>       0.50020505       0.00020505       0.50020505 </v>
   <v>       0.75020430       0.25020475       0.75020430 </v>
  </varray>
 </structure>
 <calculation>
  <scstep>
   <time name="dav">   32.80   32.80</time>
   <time name="total">   32.95   32.97</time>
   <energy>
    <i name="alphaZ">   1622.31901345 </i>
    <i name="ewald"> -26757.39161293 </i>
    <i name="hartreedc"> -10622.29155154 </i>
    <i name="XCdc">   1464.89339957 </i>
    <i name="pawpsdc">  30201.20122080 </i>
    <i name="pawaedc"> -29545.67637776 </i>
    <i name="eentropy">      0.00000000 </i>
    <i name="bandstr">    305.29514837 </i>
    <i name="atom">  37080.84622879 </i>
    <i name="e_fr_energy">   3749.19546873 </i>
    <i name="e_wo_entrp">   3749.19546873 </i>
    <i name="e_0_energy">   3749.19546873 </i>
   </energy>
  </scstep>
  <scstep>
   <time name="dav">   42.08   42.08</time>
   <time name="total">   42.09   42.10</time>
   <energy>
    <i name="e_fr_energy">   -492.56680858 </i>
    <i name="e_wo_entrp">   -492.56680858 </i>
    <i name="e_0_energy">   -492.56680858 </i>
   </energy>
  </scstep>
  <scstep>
   <time name="dav">   41.15   41.15</time>
   <time name="total">   41.16   41.16</time>
   <energy>
    <i name="e_fr_energy">   -789.01554967 </i>
    <i name="e_wo_entrp">   -789.01554967 </i>
    <i name="e_0_energy">   -789.01554967 </i>
   </energy>
  </scstep>
  <scstep>
   <time name="dav">   54.65   54.65</time>
   <time name="total">   54.66   54.66</time>
   <energy>
    <i name="e_fr_energy">   -810.01373163 </i>
    <i name="e_wo_entrp">   -810.01373163 </i>
    <i name="e_0_energy">   -810.01373163 </i>
   </energy>
  </scstep>
  <scstep>
   <time name="dav">   48.40   48.41</time>
   <time name="total">   49.65   49.65</time>
   <energy>
    <i name="e_fr_energy">   -810.50478829 </i>
    <i name="e_wo_entrp">   -810.50478829 </i>
    <i name="e_0_energy">   -810.50478829 </i>
   </energy>
  </scstep>
  <scstep>
   <time name="diag">    4.98    4.98</time>
   <time name="diis">   18.54   18.54</time>
   <time name="orth">    0.62    0.62</time>
   <time name="total">   25.45   25.46</time>
   <energy>
    <i name="e_fr_energy">   -690.11004719 </i>
    <i name="e_wo_entrp">   -690.11004719 </i>
    <i name="e_0_energy">   -690.11004719 </i>
   </energy>
  </scstep>
  <scstep>
   <time name="diag">    4.97    4.97</time>
   <time name="diis">   20.94   20.94</time>
   <time name="orth">    0.61    0.61</time>
   <time name="total">   27.85   27.85</time>
   <energy>
    <i name="e_fr_energy">   -680.23163487 </i>
    <i name="e_wo_entrp">   -680.23163487 </i>
    <i name="e_0_energy">   -680.23163487 </i>
   </energy>
  </scstep>
  <scstep>
   <time name="diag">    5.00    5.00</time>
   <time name="diis">   20.49   20.49</time>
   <time name="orth">    0.62    0.62</time>
   <time name="total">   27.42   27.43</time>
   <energy>
    <i name="e_fr_energy">   -680.10410626 </i>
    <i name="e_wo_entrp">   -680.10410626 </i>
    <i name="e_0_energy">   -680.10410626 </i>
   </energy>
  </scstep>
  <scstep>
   <time name="diag">    4.96    4.96</time>
   <time name="diis">   26.69   26.69</time>
   <time name="orth">    0.68    0.68</time>
   <time name="total">   33.64   33.65</time>
   <energy>
    <i name="e_fr_energy">   -680.02810520 </i>
    <i name="e_wo_entrp">   -680.02810520 </i>
    <i name="e_0_energy">   -680.02810520 </i>
   </energy>
  </scstep>
  <scstep>
   <time name="diag">    4.98    4.97</time>
   <time name="diis">   25.81   25.81</time>
   <time name="orth">    0.62    0.62</time>
   <time name="total">   32.72   32.73</time>
   <energy>
    <i name="e_fr_energy">   -680.02495194 </i>
    <i name="e_wo_entrp">   -680.02495194 </i>
    <i name="e_0_energy">   -680.02495194 </i>
   </energy>
  </scstep>
  <scstep>
   <time name="diag">    4.97    4.97</time>
   <time name="diis">   26.39   26.38</time>
   <time name="orth">    0.62    0.62</time>
   <time name="total">   33.28   33.29</time>
   <energy>
    <i name="e_fr_energy">   -680.03742774 </i>
    <i name="e_wo_entrp">   -680.03742774 </i>
    <i name="e_0_energy">   -680.03742774 </i>
   </energy>
  </scstep>
  <scstep>
   <time name="diag">    4.96    4.96</time>
   <time name="diis">   26.39   26.38</time>
   <time name="orth">    0.62    0.62</time>
   <time name="total">   33.28   33.29</time>
   <energy>
    <i name="e_fr_energy">   -680.04072309 </i>
    <i name="e_wo_entrp">   -680.04072309 </i>
    <i name="e_0_energy">   -680.04072309 </i>
   </energy>
  </scstep>
  <scstep>
   <time name="diag">    4.97    4.97</time>
   <time name="diis">   26.27   26.27</time>
   <time name="orth">    0.62    0.62</time>
   <time name="total">   33.17   33.17</time>
   <energy>
    <i name="e_fr_energy">   -680.04167840 </i>
    <i name="e_wo_entrp">   -680.04167840 </i>
    <i name="e_0_energy">   -680.04167840 </i>
   </energy>
  </scstep>
  <scstep>
   <time name="diag">    4.97    4.97</time>
   <time name="diis">   26.40   26.40</time>
   <time name="orth">    0.62    0.62</time>
   <time name="total">   33.30   33.30</time>
   <energy>
    <i name="e_fr_energy">   -680.04228002 </i>
    <i name="e_wo_entrp">   -680.04228002 </i>
    <i name="e_0_energy">   -680.04228002 </i>
   </energy>
  </scstep>
  <scstep>
   <time name="diag">    4.96    4.96</time>
   <time name="diis">   28.14   28.14</time>
   <time name="orth">    0.62    0.62</time>
   <time name="total">   35.03   35.03</time>
   <energy>
    <i name="e_fr_energy">   -680.04248549 </i>
    <i name="e_wo_entrp">   -680.04248549 </i>
    <i name="e_0_energy">   -680.04248549 </i>
   </energy>
  </scstep>
  <scstep>
   <time name="diag">    4.96    4.96</time>
   <time name="diis">   26.15   26.14</time>
   <time name="orth">    0.62    0.62</time>
   <time name="total">   33.04   33.04</time>
   <energy>
    <i name="e_fr_energy">   -680.04258190 </i>
    <i name="e_wo_entrp">   -680.04258190 </i>
    <i name="e_0_energy">   -680.04258190 </i>
   </energy>
  </scstep>
  <scstep>
   <time name="diag">    4.96    4.95</time>
   <time name="diis">   26.28   26.28</time>
   <time name="orth">    0.61    0.61</time>
   <time name="total">   33.17   33.17</time>
   <energy>
    <i name="e_fr_energy">   -680.04262292 </i>
    <i name="e_wo_entrp">   -680.04262292 </i>
    <i name="e_0_energy">   -680.04262292 </i>
   </energy>
  </scstep>
  <scstep>
   <time name="diag">    4.97    4.97</time>
   <time name="diis">   27.03   27.03</time>
   <time name="orth">    0.62    0.62</time>
   <time name="total">   33.94   33.94</time>
   <energy>
    <i name="e_fr_energy">   -680.04266271 </i>
    <i name="e_wo_entrp">   -680.04266271 </i>
    <i name="e_0_energy">   -680.04266271 </i>
   </energy>
  </scstep>
  <scstep>
   <time name="diag">    4.97    4.97</time>
   <time name="diis">   27.53   27.53</time>
   <time name="orth">    0.62    0.62</time>
   <time name="total">   34.44   34.44</time>
   <energy>
    <i name="e_fr_energy">   -680.04270038 </i>
    <i name="e_wo_entrp">   -680.04270038 </i>
    <i name="e_0_energy">   -680.04270038 </i>
   </energy>
  </scstep>
  <scstep>
   <time name="diag">    4.96    4.96</time>
   <time name="diis">   25.04   25.04</time>
   <time name="orth">    0.61    0.61</time>
   <time name="total">   31.94   31.94</time>
   <energy>
    <i name="e_fr_energy">   -680.04272343 </i>
    <i name="e_wo_entrp">   -680.04272343 </i>
    <i name="e_0_energy">   -680.04272343 </i>
   </energy>
  </scstep>
  <scstep>
   <time name="diag">    4.98    4.98</time>
   <time name="diis">   23.55   23.54</time>
   <time name="orth">    0.62    0.62</time>
   <time name="total">   30.45   30.46</time>
   <energy>
    <i name="e_fr_energy">   -680.04270310 </i>
    <i name="e_wo_entrp">   -680.04270310 </i>
    <i name="e_0_energy">   -680.04270310 </i>
   </energy>
  </scstep>
  <scstep>
   <time name="diag">    4.96    4.96</time>
   <time name="diis">   18.19   18.19</time>
   <time name="orth">    0.61    0.61</time>
   <time name="total">   25.07   25.08</time>
   <energy>
    <i name="e_fr_energy">   -680.04271325 </i>
    <i name="e_wo_entrp">   -680.04271325 </i>
    <i name="e_0_energy">   -680.04271325 </i>
   </energy>
  </scstep>
  <scstep>
   <time name="diag">    4.96    4.96</time>
   <time name="diis">   18.05   18.05</time>
   <time name="orth">    0.62    0.62</time>
   <time name="total">   24.94   24.95</time>
   <energy>
    <i name="e_fr_energy">   -680.04269272 </i>
    <i name="e_wo_entrp">   -680.04269272 </i>
    <i name="e_0_energy">   -680.04269272 </i>
   </energy>
  </scstep>
  <scstep>
   <time name="diag">    4.95    4.95</time>
   <time name="diis">   16.79   16.79</time>
   <time name="orth">    0.61    0.61</time>
   <time name="total">   23.67   23.68</time>
   <energy>
    <i name="e_fr_energy">   -680.04267575 </i>
    <i name="e_wo_entrp">   -680.04267575 </i>
    <i name="e_0_energy">   -680.04267575 </i>
   </energy>
  </scstep>
  <scstep>
   <time name="diag">    4.95    4.95</time>
   <time name="diis">   18.76   18.76</time>
   <time name="orth">    0.61    0.61</time>
   <time name="total">   25.63   25.64</time>
   <energy>
    <i name="e_fr_energy">   -680.04265215 </i>
    <i name="e_wo_entrp">   -680.04265215 </i>
    <i name="e_0_energy">   -680.04265215 </i>
   </energy>
  </scstep>
  <scstep>
   <time name="diag">    4.95    4.95</time>
   <time name="diis">   11.84   11.84</time>
   <time name="orth">    0.67    0.67</time>
   <time name="total">   18.77   18.78</time>
   <energy>
    <i name="e_fr_energy">   -680.04264863 </i>
    <i name="e_wo_entrp">   -680.04264863 </i>
    <i name="e_0_energy">   -680.04264863 </i>
   </energy>
  </scstep>
  <scstep>
   <time name="diag">    4.95    4.95</time>
   <time name="diis">   12.69   12.69</time>
   <time name="orth">    0.61    0.61</time>
   <time name="total">   19.57   19.58</time>
   <energy>
    <i name="e_fr_energy">   -680.04264190 </i>
    <i name="e_wo_entrp">   -680.04264190 </i>
    <i name="e_0_energy">   -680.04264190 </i>
   </energy>
  </scstep>
  <scstep>
   <time name="diag">    4.96    4.96</time>
   <time name="diis">   14.73   14.73</time>
   <time name="orth">    0.62    0.62</time>
   <time name="total">   21.62   21.63</time>
   <energy>
    <i name="e_fr_energy">   -680.04263290 </i>
    <i name="e_wo_entrp">   -680.04263290 </i>
    <i name="e_0_energy">   -680.04263290 </i>
   </energy>
  </scstep>
  <scstep>
   <time name="diag">    4.95    4.95</time>
   <time name="diis">   20.55   20.55</time>
   <time name="orth">    0.62    0.62</time>
   <time name="total">   27.43   27.44</time>
   <energy>
    <i name="e_fr_energy">   -680.04262158 </i>
    <i name="e_wo_entrp">   -680.04262158 </i>
    <i name="e_0_energy">   -680.04262158 </i>
   </energy>
  </scstep>
  <scstep>
   <time name="diag">    4.95    4.95</time>
   <time name="diis">   23.04   23.03</time>
   <time name="orth">    0.62    0.62</time>
   <time name="total">   29.92   29.92</time>
   <energy>
    <i name="e_fr_energy">   -680.04261396 </i>
    <i name="e_wo_entrp">   -680.04261396 </i>
    <i name="e_0_energy">   -680.04261396 </i>
   </energy>
  </scstep>
  <scstep>
   <time name="diag">    4.96    4.96</time>
   <time name="diis">   26.63   26.63</time>
   <time name="orth">    0.62    0.62</time>
   <time name="total">   33.53   33.54</time>
   <energy>
    <i name="e_fr_energy">   -680.04260282 </i>
    <i name="e_wo_entrp">   -680.04260282 </i>
    <i name="e_0_energy">   -680.04260282 </i>
   </energy>
  </scstep>
  <scstep>
   <time name="diag">    4.95    4.95</time>
   <time name="diis">   26.14   26.14</time>
   <time name="orth">    0.62    0.62</time>
   <time name="total">   33.04   33.04</time>
   <energy>
    <i name="e_fr_energy">   -680.04260323 </i>
    <i name="e_wo_entrp">   -680.04260323 </i>
    <i name="e_0_energy">   -680.04260323 </i>
   </energy>
  </scstep>
  <scstep>
   <time name="diag">    4.95    4.95</time>
   <time name="diis">   20.46   20.46</time>
   <time name="orth">    0.63    0.63</time>
   <time name="total">   27.37   27.37</time>
   <energy>
    <i name="e_fr_energy">   -680.04260507 </i>
    <i name="e_wo_entrp">   -680.04260507 </i>
    <i name="e_0_energy">   -680.04260507 </i>
   </energy>
  </scstep>
  <scstep>
   <time name="diag">    4.96    4.96</time>
   <time name="diis">   15.65   15.65</time>
   <time name="orth">    0.62    0.62</time>
   <time name="total">   22.55   22.55</time>
   <energy>
    <i name="e_fr_energy">   -680.04260627 </i>
    <i name="e_wo_entrp">   -680.04260627 </i>
    <i name="e_0_energy">   -680.04260627 </i>
   </energy>
  </scstep>
  <scstep>
   <time name="diag">    4.95    4.95</time>
   <time name="diis">   14.01   14.01</time>
   <time name="orth">    0.62    0.62</time>
   <time name="total">   19.66   19.67</time>
   <energy>
    <i name="alphaZ">   1622.31901345 </i>
    <i name="ewald"> -26757.39161293 </i>
    <i name="hartreedc"> -11007.90712654 </i>
    <i name="XCdc">   1511.37054037 </i>
    <i name="pawpsdc">  45807.34931182 </i>
    <i name="pawaedc"> -45138.74302932 </i>
    <i name="eentropy">      0.00000000 </i>
    <i name="bandstr">  -3797.88593242 </i>
    <i name="atom">  37080.84622879 </i>
    <i name="e_fr_energy">   -680.04260679 </i>
    <i name="e_wo_entrp">   -680.04260679 </i>
    <i name="e_0_energy">   -680.04260679 </i>
   </energy>
  </scstep>
  <structure>
   <crystal>
    <varray name="basis" >
     <v>       5.14725560      -2.97177580       9.24170200 </v>
     <v>       0.00000000       5.94354060       9.24170200 </v>
     <v>      -5.14725560      -2.97177580       9.24170200 </v>
    </varray>
    <i name="volume">    848.19254623 </i>
    <varray name="rec_basis" >
     <v>       0.09713914      -0.05608326       0.03606837 </v>
     <v>       0.00000000       0.11216652       0.03606844 </v>
     <v>      -0.09713914      -0.05608326       0.03606837 </v>
    </varray>
   </crystal>
   <varray name="positions" >
    <v>       0.14094405       0.14094430       0.14094405 </v>
    <v>       0.39094295       0.39094365       0.39094295 </v>
    <v>       0.14094405       0.14094430       0.64094405 </v>
    <v>       0.39094295       0.39094365       0.89094295 </v>
    <v>       0.14094405       0.64094430       0.14094405 </v>
    <v>       0.39094295       0.89094365       0.39094295 </v>
    <v>       0.14094405       0.64094430       0.64094405 </v>
    <v>       0.39094295       0.89094365       0.89094295 </v>
    <v>       0.64094405       0.14094430       0.14094405 </v>
    <v>       0.89094295       0.39094365       0.39094295 </v>
    <v>       0.64094405       0.14094430       0.64094405 </v>
    <v>       0.89094295       0.39094365       0.89094295 </v>
    <v>       0.64094405       0.64094430       0.14094405 </v>
    <v>       0.89094295       0.89094365       0.39094295 </v>
    <v>       0.64094405       0.64094430       0.64094405 </v>
    <v>       0.89094295       0.89094365       0.89094295 </v>
    <v>       0.00020505       0.00020505       0.00020505 </v>
    <v>       0.00020505       0.00020505       0.50020505 </v>
    <v>       0.25020430       0.25020475       0.75020430 </v>
    <v>       0.00020505       0.50020505       0.00020505 </v>
    <v>       0.00020505       0.50020505       0.50020505 </v>
    <v>       0.50020505       0.00020505       0.00020505 </v>
    <v>       0.50020505       0.50020505       0.00020505 </v>
    <v>       0.75020430       0.75020475       0.25020430 </v>
    <v>       0.50020505       0.50020505       0.50020505 </v>
    <v>       0.75020430       0.75020475       0.75020430 </v>
    <v>       0.05381235       0.18164315       0.36018735 </v>
    <v>       0.36018730       0.05381285       0.18164270 </v>
    <v>       0.18164285       0.36018755       0.05381245 </v>
    <v>       0.43164200       0.30381225       0.11018930 </v>
    <v>       0.11018940       0.43164240       0.30381175 </v>
    <v>       0.30381165       0.11019005       0.43164190 </v>
    <v>       0.05381235       0.18164315       0.86018735 </v>
    <v>       0.36018730       0.05381285       0.68164270 </v>
    <v>       0.18164285       0.36018755       0.55381245 </v>
    <v>       0.43164200       0.30381225       0.61018930 </v>
    <v>       0.11018940       0.43164240       0.80381175 </v>
    <v>       0.30381165       0.11019005       0.93164190 </v>
    <v>       0.05381235       0.68164315       0.36018735 </v>
    <v>       0.36018730       0.55381285       0.18164270 </v>
    <v>       0.18164285       0.86018755       0.05381245 </v>
    <v>       0.43164200       0.80381225       0.11018930 </v>
    <v>       0.11018940       0.93164240       0.30381175 </v>
    <v>       0.30381165       0.61019005       0.43164190 </v>
    <v>       0.05381235       0.68164315       0.86018735 </v>
    <v>       0.36018730       0.55381285       0.68164270 </v>
    <v>       0.18164285       0.86018755       0.55381245 </v>
    <v>       0.43164200       0.80381225       0.61018930 </v>
    <v>       0.11018940       0.93164240       0.80381175 </v>
    <v>       0.30381165       0.61019005       0.93164190 </v>
    <v>       0.55381235       0.18164315       0.36018735 </v>
    <v>       0.86018730       0.05381285       0.18164270 </v>
    <v>       0.68164285       0.36018755       0.05381245 </v>
    <v>       0.93164200       0.30381225       0.11018930 </v>
    <v>       0.61018940       0.43164240       0.30381175 </v>
    <v>       0.80381165       0.11019005       0.43164190 </v>
    <v>       0.55381235       0.18164315       0.86018735 </v>
    <v>       0.86018730       0.05381285       0.68164270 </v>
    <v>       0.68164285       0.36018755       0.55381245 </v>
    <v>       0.93164200       0.30381225       0.61018930 </v>
    <v>       0.61018940       0.43164240       0.80381175 </v>
    <v>       0.80381165       0.11019005       0.93164190 </v>
    <v>       0.55381235       0.68164315       0.36018735 </v>
    <v>       0.86018730       0.55381285       0.18164270 </v>
    <v>       0.68164285       0.86018755       0.05381245 </v>
    <v>       0.93164200       0.80381225       0.11018930 </v>
    <v>       0.61018940       0.93164240       0.30381175 </v>
    <v>       0.80381165       0.61019005       0.43164190 </v>
    <v>       0.55381235       0.68164315       0.86018735 </v>
    <v>       0.86018730       0.55381285       0.68164270 </v>
    <v>       0.68164285       0.86018755       0.55381245 </v>
    <v>       0.93164200       0.80381225       0.61018930 </v>
    <v>       0.61018940       0.93164240       0.80381175 </v>
    <v>       0.80381165       0.61019005       0.93164190 </v>
    <v>       0.25020430       0.25020475       0.25020430 </v>
    <v>       0.25020430       0.75020475       0.25020430 </v>
    <v>       0.25020430       0.75020475       0.75020430 </v>
    <v>       0.75020430       0.25020475       0.25020430 </v>
    <v>       0.50020505       0.00020505       0.50020505 </v>
    <v>       0.75020430       0.25020475       0.75020430 </v>
   </varray>
  </structure>
  <varray name="forces" >
   <v>      -0.01614388       0.00467892      -0.03055929 </v>
   <v>      -0.00022922      -0.01314580       0.01923271 </v>
   <v>      -0.01186490       0.00188763       0.01000383 </v>
   <v>       0.00162373       0.00117512       0.03726914 </v>
   <v>       0.00679527      -0.01802841      -0.01844000 </v>
   <v>       0.00630514      -0.01154956       0.00221127 </v>
   <v>       0.01642603      -0.00303239      -0.02691005 </v>
   <v>       0.02040099       0.01634276       0.00953494 </v>
   <v>       0.01742893       0.02410648      -0.00952774 </v>
   <v>       0.00285576       0.00827152       0.02581849 </v>
   <v>       0.01708335      -0.00166396      -0.02877755 </v>
   <v>       0.00943824       0.00111450       0.01326875 </v>
   <v>      -0.01735696       0.00004316      -0.00814174 </v>
   <v>      -0.03018821      -0.00342354       0.02068622 </v>
   <v>      -0.01239027      -0.00862122       0.01399948 </v>
   <v>      -0.01024318       0.00188509       0.02780996 </v>
   <v>       0.07936114       0.12591148      -0.17864241 </v>
   <v>       0.01462095       0.04738038      -0.27939366 </v>
   <v>       0.04651490      -0.04260750      -0.12746109 </v>
   <v>      -0.11474386      -0.03671888      -0.21666495 </v>
   <v>      -0.03442600      -0.12825402      -0.13900588 </v>
   <v>       0.01208078      -0.10649141      -0.21429606 </v>
   <v>       0.06109680       0.06403389      -0.20505714 </v>
   <v>       0.03149698      -0.07027634      -0.08079150 </v>
   <v>       0.08789075       0.09598773      -0.24000983 </v>
   <v>       0.01849791       0.05272332      -0.13111289 </v>
   <v>       0.15440529      -0.12646738       0.12527748 </v>
   <v>       0.00863906       0.19668099       0.12936279 </v>
   <v>      -0.16819222      -0.08604317       0.12104365 </v>
   <v>       0.19365234       0.15564951       0.21888119 </v>
   <v>      -0.24331948       0.10207274       0.21888719 </v>
   <v>       0.05774265      -0.38054514       0.31633166 </v>
   <v>       0.02589478      -0.17849646       0.01753496 </v>
   <v>      -0.21357364       0.16886875       0.24268495 </v>
   <v>      -0.16339022       0.05821647       0.02368850 </v>
   <v>      -0.10586474       0.12773618       0.05563700 </v>
   <v>      -0.07453027      -0.12896679       0.05389118 </v>
   <v>       0.14920065       0.01579732       0.05582071 </v>
   <v>       0.17318430      -0.08245629       0.12991478 </v>
   <v>       0.01355467       0.19531114       0.12635732 </v>
   <v>      -0.18037787      -0.08979727       0.12494693 </v>
   <v>       0.23897090       0.18321397       0.25921023 </v>
   <v>      -0.26793469       0.11669868       0.26470944 </v>
   <v>       0.02748594      -0.28681698       0.25355647 </v>
   <v>       0.17231745      -0.09458799       0.12607997 </v>
   <v>       0.00015177       0.19198498       0.12692872 </v>
   <v>      -0.17792104      -0.07613126       0.11936967 </v>
   <v>       0.31167719       0.24204077       0.31803540 </v>
   <v>      -0.24766890       0.08834965       0.22405980 </v>
   <v>       0.03438360      -0.25500465       0.22675699 </v>
   <v>       0.37449246       0.15385104       0.33488739 </v>
   <v>       0.02700989       0.17505077       0.10973652 </v>
   <v>      -0.17272867      -0.08561375       0.13204677 </v>
   <v>       0.25458540       0.17645289       0.26198309 </v>
   <v>      -0.26293438       0.11310185       0.26370623 </v>
   <v>       0.04209484      -0.30253776       0.27917088 </v>
   <v>       0.15274189      -0.10619503       0.10482749 </v>
   <v>       0.02583084       0.17943589       0.10644599 </v>
   <v>      -0.17724861      -0.09170491       0.12513719 </v>
   <v>       0.21680830       0.16712882       0.22688891 </v>
   <v>      -0.25509463       0.10364542       0.23700434 </v>
   <v>       0.02838619      -0.29101238       0.23874769 </v>
   <v>       0.04248996      -0.16062768       0.03098874 </v>
   <v>       0.12709271       0.12684540       0.02356077 </v>
   <v>      -0.15936378       0.04556540       0.02122320 </v>
   <v>      -0.11892243       0.11622031       0.02083319 </v>
   <v>      -0.14795018      -0.10710478       0.10861179 </v>
   <v>       0.16715819       0.06544559       0.00238622 </v>
   <v>       0.02776067      -0.17479656       0.02193652 </v>
   <v>       0.10978885       0.12339202       0.02998341 </v>
   <v>      -0.02597855      -0.26885016       0.22741584 </v>
   <v>      -0.08525527       0.12214943       0.06586193 </v>
   <v>      -0.07376920      -0.14378212       0.06006294 </v>
   <v>       0.15791436       0.00705336       0.05463563 </v>
   <v>       0.02875869       0.07418271      -0.85045770 </v>
   <v>      -0.00228699      -0.01830578      -0.87771859 </v>
   <v>      -0.06461920      -0.01921744      -0.85282463 </v>
   <v>      -0.06259156       0.00719269      -0.90393074 </v>
   <v>      -0.10250891      -0.05802920      -0.90988412 </v>
   <v>       0.00752043       0.01202725      -0.81727689 </v>
  </varray>
  <varray name="stress" >
   <v>     -21.55938926      -0.02639732      -0.02420321 </v>
   <v>      -0.02639727     -21.56453910       0.00195447 </v>
   <v>      -0.02420320       0.00195449     -21.20470288 </v>
  </varray>
  <energy>
   <i name="e_fr_energy">   -680.04260679 </i>
   <i name="e_wo_entrp">   -680.04260679 </i>
   <i name="e_0_energy">      0.00000000 </i>
  </energy>
  <time name="totalsc"> 1131.35 1131.57</time>
 </calculation>
 <calculation>
  <scstep>
   <time name="dav">   38.83   38.83</time>
   <time name="total">   40.16   40.16</time>
   <energy>
    <i name="alphaZ">   1632.35530255 </i>
    <i name="ewald"> -26800.89569542 </i>
    <i name="hartreedc"> -11043.19053271 </i>
    <i name="XCdc">   1515.38309500 </i>
    <i name="pawpsdc">  45807.44374109 </i>
    <i name="pawaedc"> -45138.82421092 </i>
    <i name="eentropy">      0.00000000 </i>
    <i name="bandstr">  -3733.40830978 </i>
    <i name="atom">  37080.84622879 </i>
    <i name="e_fr_energy">   -680.29038140 </i>
    <i name="e_wo_entrp">   -680.29038140 </i>
    <i name="e_0_energy">   -680.29038140 </i>
   </energy>
  </scstep>
  <scstep>
   <time name="diag">    4.97    4.97</time>
   <time name="diis">   21.07   21.07</time>
   <time name="orth">    0.62    0.62</time>
   <time name="total">   27.98   27.99</time>
   <energy>
    <i name="e_fr_energy">   -680.22444304 </i>
    <i name="e_wo_entrp">   -680.22444304 </i>
    <i name="e_0_energy">   -680.22444304 </i>
   </energy>
  </scstep>
  <scstep>
   <time name="diag">    4.97    4.97</time>
   <time name="diis">   20.28   20.28</time>
   <time name="orth">    0.61    0.61</time>
   <time name="total">   27.18   27.19</time>
   <energy>
    <i name="e_fr_energy">   -680.20442267 </i>
    <i name="e_wo_entrp">   -680.20442267 </i>
    <i name="e_0_energy">   -680.20442267 </i>
   </energy>
  </scstep>
  <scstep>
   <time name="diag">    4.97    4.97</time>
   <time name="diis">   23.60   23.60</time>
   <time name="orth">    0.61    0.61</time>
   <time name="total">   30.50   30.50</time>
   <energy>
    <i name="e_fr_energy">   -680.20460722 </i>
    <i name="e_wo_entrp">   -680.20460722 </i>
    <i name="e_0_energy">   -680.20460722 </i>
   </energy>
  </scstep>
  <scstep>
   <time name="diag">    4.97    4.97</time>
   <time name="diis">   23.22   23.22</time>
   <time name="orth">    0.62    0.62</time>
   <time name="total">   30.12   30.12</time>
   <energy>
    <i name="e_fr_energy">   -680.20466329 </i>
    <i name="e_wo_entrp">   -680.20466329 </i>
    <i name="e_0_energy">   -680.20466329 </i>
   </energy>
  </scstep>
  <scstep>
   <time name="diag">    4.97    4.97</time>
   <time name="diis">   29.29   29.28</time>
   <time name="orth">    0.62    0.62</time>
   <time name="total">   36.19   36.19</time>
   <energy>
    <i name="e_fr_energy">   -680.20473800 </i>
    <i name="e_wo_entrp">   -680.20473800 </i>
    <i name="e_0_energy">   -680.20473800 </i>
   </energy>
  </scstep>
  <scstep>
   <time name="diag">    4.98    4.98</time>
   <time name="diis">   27.55   27.54</time>
   <time name="orth">    0.61    0.61</time>
   <time name="total">   34.54   34.55</time>
   <energy>
    <i name="e_fr_energy">   -680.20477604 </i>
    <i name="e_wo_entrp">   -680.20477604 </i>
    <i name="e_0_energy">   -680.20477604 </i>
   </energy>
  </scstep>
  <scstep>
   <time name="diag">    4.97    4.97</time>
   <time name="diis">   27.67   27.67</time>
   <time name="orth">    0.64    0.64</time>
   <time name="total">   34.60   34.60</time>
   <energy>
    <i name="e_fr_energy">   -680.20479724 </i>
    <i name="e_wo_entrp">   -680.20479724 </i>
    <i name="e_0_energy">   -680.20479724 </i>
   </energy>
  </scstep>
  <scstep>
   <time name="diag">    4.98    4.98</time>
   <time name="diis">   29.39   29.39</time>
   <time name="orth">    0.62    0.62</time>
   <time name="total">   36.30   36.30</time>
   <energy>
    <i name="e_fr_energy">   -680.20482503 </i>
    <i name="e_wo_entrp">   -680.20482503 </i>
    <i name="e_0_energy">   -680.20482503 </i>
   </energy>
  </scstep>
  <scstep>
   <time name="diag">    4.97    4.97</time>
   <time name="diis">   25.30   25.30</time>
   <time name="orth">    0.62    0.62</time>
   <time name="total">   32.20   32.20</time>
   <energy>
    <i name="e_fr_energy">   -680.20482766 </i>
    <i name="e_wo_entrp">   -680.20482766 </i>
    <i name="e_0_energy">   -680.20482766 </i>
   </energy>
  </scstep>
  <scstep>
   <time name="diag">    4.97    4.97</time>
   <time name="diis">   21.51   21.51</time>
   <time name="orth">    0.62    0.62</time>
   <time name="total">   28.41   28.41</time>
   <energy>
    <i name="e_fr_energy">   -680.20482939 </i>
    <i name="e_wo_entrp">   -680.20482939 </i>
    <i name="e_0_energy">   -680.20482939 </i>
   </energy>
  </scstep>
  <scstep>
   <time name="diag">    4.98    4.98</time>
   <time name="diis">   17.97   17.96</time>
   <time name="orth">    0.62    0.62</time>
   <time name="total">   23.64   23.64</time>
   <energy>
    <i name="alphaZ">   1632.35530255 </i>
    <i name="ewald"> -26800.89569542 </i>
    <i name="hartreedc"> -10998.27159868 </i>
[...]
       <r>    1.7583    1.0000 </r>
       <r>    1.7726    1.0000 </r>
       <r>    1.7839    1.0000 </r>
       <r>    1.7897    1.0000 </r>
       <r>    1.8973    1.0000 </r>
       <r>    1.9165    1.0000 </r>
       <r>    1.9324    1.0000 </r>
       <r>    1.9506    1.0000 </r>
       <r>    1.9719    1.0000 </r>
       <r>    2.0050    1.0000 </r>
       <r>    2.0160    1.0000 </r>
       <r>    2.0469    1.0000 </r>
       <r>    2.0715    1.0000 </r>
       <r>    2.0839    1.0000 </r>
       <r>    2.0977    1.0000 </r>
       <r>    2.1123    1.0000 </r>
       <r>    2.1235    1.0000 </r>
       <r>    2.1492    1.0000 </r>
       <r>    2.1694    1.0000 </r>
       <r>    2.1818    1.0000 </r>
       <r>    2.2051    1.0000 </r>
       <r>    2.2278    1.0000 </r>
       <r>    2.2377    1.0000 </r>
       <r>    2.2827    1.0000 </r>
       <r>    2.3213    1.0000 </r>
       <r>    2.3304    1.0000 </r>
       <r>    2.3341    1.0000 </r>
       <r>    2.3503    1.0000 </r>
       <r>    2.3584    1.0000 </r>
       <r>    2.3727    1.0000 </r>
       <r>    2.3884    1.0000 </r>
       <r>    2.3939    1.0000 </r>
       <r>    2.4527    1.0000 </r>
       <r>    2.4750    1.0000 </r>
       <r>    2.5035    1.0000 </r>
       <r>    2.5124    1.0000 </r>
       <r>    2.6442    1.0000 </r>
       <r>    2.6605    1.0000 </r>
       <r>    2.6669    1.0000 </r>
       <r>    2.6824    1.0000 </r>
       <r>    2.6880    1.0000 </r>
       <r>    2.7134    1.0000 </r>
       <r>    2.7194    1.0000 </r>
       <r>    2.7296    1.0000 </r>
       <r>    2.7442    1.0000 </r>
       <r>    2.7715    1.0000 </r>
       <r>    6.4706    0.0000 </r>
       <r>    6.4993    0.0000 </r>
       <r>    6.6295    0.0000 </r>
       <r>    6.6658    0.0000 </r>
       <r>    6.7049    0.0000 </r>
       <r>    6.7212    0.0000 </r>
       <r>    6.7697    0.0000 </r>
       <r>    6.7776    0.0000 </r>
       <r>    6.8035    0.0000 </r>
       <r>    6.8299    0.0000 </r>
       <r>    6.8513    0.0000 </r>
       <r>    6.8772    0.0000 </r>
       <r>    6.9005    0.0000 </r>
       <r>    6.9447    0.0000 </r>
       <r>    6.9537    0.0000 </r>
       <r>    7.0147    0.0000 </r>
       <r>    7.0480    0.0000 </r>
       <r>    7.2192    0.0000 </r>
       <r>    7.2714    0.0000 </r>
       <r>    7.2847    0.0000 </r>
       <r>    7.3145    0.0000 </r>
       <r>    7.3934    0.0000 </r>
       <r>    7.4874    0.0000 </r>
       <r>    7.5156    0.0000 </r>
       <r>    7.6515    0.0000 </r>
       <r>    7.6886    0.0000 </r>
       <r>    7.7387    0.0000 </r>
       <r>    7.7918    0.0000 </r>
       <r>    7.8214    0.0000 </r>
       <r>    7.8569    0.0000 </r>
       <r>    7.9372    0.0000 </r>
       <r>    7.9566    0.0000 </r>
       <r>    8.0439    0.0000 </r>
       <r>    8.1131    0.0000 </r>
       <r>    8.1361    0.0000 </r>
       <r>    8.1582    0.0000 </r>
       <r>    8.1832    0.0000 </r>
       <r>    8.2167    0.0000 </r>
       <r>    8.2363    0.0000 </r>
       <r>    8.3149    0.0000 </r>
       <r>    8.3916    0.0000 </r>
       <r>    8.4339    0.0000 </r>
       <r>    8.4880    0.0000 </r>
       <r>    8.5124    0.0000 </r>
       <r>    8.5378    0.0000 </r>
       <r>    8.5690    0.0000 </r>
       <r>    8.5951    0.0000 </r>
       <r>    8.7000    0.0000 </r>
       <r>   10.4129    0.0000 </r>
       <r>   10.5878    0.0000 </r>
       <r>   10.6295    0.0000 </r>
       <r>   10.6877    0.0000 </r>
       <r>   10.7667    0.0000 </r>
       <r>   10.7881    0.0000 </r>
       <r>   10.8688    0.0000 </r>
       <r>   10.9091    0.0000 </r>
      </set>
      <set comment="kpoint 36">
       <r>  -51.3105    1.0000 </r>
       <r>  -51.3082    1.0000 </r>
       <r>  -51.2910    1.0000 </r>
       <r>  -51.2864    1.0000 </r>
       <r>  -51.2743    1.0000 </r>
       <r>  -51.2698    1.0000 </r>
       <r>  -51.2502    1.0000 </r>
       <r>  -51.2472    1.0000 </r>
       <r>  -51.2446    1.0000 </r>
       <r>  -51.2221    1.0000 </r>
       <r>  -27.6197    1.0000 </r>
       <r>  -27.6174    1.0000 </r>
       <r>  -27.6142    1.0000 </r>
       <r>  -27.6072    1.0000 </r>
       <r>  -27.6036    1.0000 </r>
       <r>  -27.5967    1.0000 </r>
       <r>  -27.5858    1.0000 </r>
       <r>  -27.5768    1.0000 </r>
       <r>  -27.5730    1.0000 </r>
       <r>  -27.5624    1.0000 </r>
       <r>  -27.5476    1.0000 </r>
       <r>  -27.5418    1.0000 </r>
       <r>  -27.5369    1.0000 </r>
       <r>  -27.5348    1.0000 </r>
       <r>  -27.5329    1.0000 </r>
       <r>  -27.5184    1.0000 </r>
       <r>  -27.5153    1.0000 </r>
       <r>  -27.5112    1.0000 </r>
       <r>  -27.5013    1.0000 </r>
       <r>  -27.4978    1.0000 </r>
       <r>  -27.4793    1.0000 </r>
       <r>  -27.4781    1.0000 </r>
       <r>  -27.4670    1.0000 </r>
       <r>  -27.4513    1.0000 </r>
       <r>  -27.4491    1.0000 </r>
       <r>  -27.4449    1.0000 </r>
       <r>  -27.4311    1.0000 </r>
       <r>  -27.4066    1.0000 </r>
       <r>  -27.4015    1.0000 </r>
       <r>  -27.3870    1.0000 </r>
       <r>  -14.1376    1.0000 </r>
       <r>  -14.0841    1.0000 </r>
       <r>  -13.8626    1.0000 </r>
       <r>  -13.8208    1.0000 </r>
       <r>  -13.8125    1.0000 </r>
       <r>  -13.7430    1.0000 </r>
       <r>  -13.7131    1.0000 </r>
       <r>  -13.6873    1.0000 </r>
       <r>  -13.5306    1.0000 </r>
       <r>  -13.4957    1.0000 </r>
       <r>  -13.4799    1.0000 </r>
       <r>  -13.4753    1.0000 </r>
       <r>  -13.4723    1.0000 </r>
       <r>  -13.4551    1.0000 </r>
       <r>  -13.3961    1.0000 </r>
       <r>  -13.3911    1.0000 </r>
       <r>  -13.3865    1.0000 </r>
       <r>  -13.3710    1.0000 </r>
       <r>  -13.3441    1.0000 </r>
       <r>  -13.3319    1.0000 </r>
       <r>  -13.3251    1.0000 </r>
       <r>  -13.3124    1.0000 </r>
       <r>  -13.3094    1.0000 </r>
       <r>  -13.2933    1.0000 </r>
       <r>  -12.9519    1.0000 </r>
       <r>  -12.9079    1.0000 </r>
       <r>  -12.8820    1.0000 </r>
       <r>  -12.8605    1.0000 </r>
       <r>  -12.8477    1.0000 </r>
       <r>  -12.8451    1.0000 </r>
       <r>  -12.8315    1.0000 </r>
       <r>  -12.8289    1.0000 </r>
       <r>  -12.8085    1.0000 </r>
       <r>  -12.7934    1.0000 </r>
       <r>  -12.7876    1.0000 </r>
       <r>  -12.7642    1.0000 </r>
       <r>  -12.7603    1.0000 </r>
       <r>  -12.7225    1.0000 </r>
       <r>  -12.7106    1.0000 </r>
       <r>  -12.6970    1.0000 </r>
       <r>  -12.6959    1.0000 </r>
       <r>  -12.6883    1.0000 </r>
       <r>  -12.6787    1.0000 </r>
       <r>  -12.6252    1.0000 </r>
       <r>  -12.5816    1.0000 </r>
       <r>  -12.5599    1.0000 </r>
       <r>  -12.5384    1.0000 </r>
       <r>  -12.5283    1.0000 </r>
       <r>   -1.7992    1.0000 </r>
       <r>   -1.7877    1.0000 </r>
       <r>   -1.7836    1.0000 </r>
       <r>   -1.7541    1.0000 </r>
       <r>   -1.6986    1.0000 </r>
       <r>   -1.6667    1.0000 </r>
       <r>   -1.6602    1.0000 </r>
       <r>   -1.6019    1.0000 </r>
       <r>   -1.5958    1.0000 </r>
       <r>   -1.5870    1.0000 </r>
       <r>   -1.5842    1.0000 </r>
       <r>   -1.5711    1.0000 </r>
       <r>   -1.5691    1.0000 </r>
       <r>   -1.5663    1.0000 </r>
       <r>   -1.5461    1.0000 </r>
       <r>   -1.5268    1.0000 </r>
       <r>   -1.5021    1.0000 </r>
       <r>   -1.4966    1.0000 </r>
       <r>   -1.4932    1.0000 </r>
       <r>   -1.4840    1.0000 </r>
       <r>   -1.4801    1.0000 </r>
       <r>   -1.4752    1.0000 </r>
       <r>   -1.3594    1.0000 </r>
       <r>   -1.3257    1.0000 </r>
       <r>   -1.2994    1.0000 </r>
       <r>   -1.2706    1.0000 </r>
       <r>   -1.2606    1.0000 </r>
       <r>   -1.2409    1.0000 </r>
       <r>   -1.2183    1.0000 </r>
       <r>   -1.2001    1.0000 </r>
       <r>   -1.0694    1.0000 </r>
       <r>   -1.0665    1.0000 </r>
       <r>   -1.0449    1.0000 </r>
       <r>   -1.0417    1.0000 </r>
       <r>   -0.6474    1.0000 </r>
       <r>   -0.5710    1.0000 </r>
       <r>   -0.5673    1.0000 </r>
       <r>   -0.5574    1.0000 </r>
       <r>   -0.5364    1.0000 </r>
       <r>   -0.5261    1.0000 </r>
       <r>   -0.5206    1.0000 </r>
       <r>   -0.5005    1.0000 </r>
       <r>   -0.2738    1.0000 </r>
       <r>   -0.2532    1.0000 </r>
       <r>   -0.2518    1.0000 </r>
       <r>   -0.2406    1.0000 </r>
       <r>   -0.2376    1.0000 </r>
       <r>   -0.2295    1.0000 </r>
       <r>   -0.0029    1.0000 </r>
       <r>    0.0163    1.0000 </r>
       <r>    0.0255    1.0000 </r>
       <r>    0.0391    1.0000 </r>
       <r>    0.0470    1.0000 </r>
       <r>    0.0571    1.0000 </r>
       <r>    0.1348    1.0000 </r>
       <r>    0.1398    1.0000 </r>
       <r>    0.1693    1.0000 </r>
       <r>    0.1740    1.0000 </r>
       <r>    0.1806    1.0000 </r>
       <r>    0.1852    1.0000 </r>
       <r>    0.2532    1.0000 </r>
       <r>    0.2698    1.0000 </r>
       <r>    0.2767    1.0000 </r>
       <r>    0.2824    1.0000 </r>
       <r>    0.2880    1.0000 </r>
       <r>    0.2926    1.0000 </r>
       <r>    0.6369    1.0000 </r>
       <r>    0.6502    1.0000 </r>
       <r>    0.6635    1.0000 </r>
       <r>    0.6916    1.0000 </r>
       <r>    0.6972    1.0000 </r>
       <r>    0.7202    1.0000 </r>
       <r>    0.8755    1.0000 </r>
       <r>    0.8871    1.0000 </r>
       <r>    0.8883    1.0000 </r>
       <r>    0.9100    1.0000 </r>
       <r>    0.9190    1.0000 </r>
       <r>    0.9321    1.0000 </r>
       <r>    1.3241    1.0000 </r>
       <r>    1.3294    1.0000 </r>
       <r>    1.3508    1.0000 </r>
       <r>    1.3541    1.0000 </r>
       <r>    1.4069    1.0000 </r>
       <r>    1.4237    1.0000 </r>
       <r>    1.4266    1.0000 </r>
       <r>    1.4482    1.0000 </r>
       <r>    1.4521    1.0000 </r>
       <r>    1.4635    1.0000 </r>
       <r>    1.4701    1.0000 </r>
       <r>    1.4889    1.0000 </r>
       <r>    1.4960    1.0000 </r>
       <r>    1.4993    1.0000 </r>
       <r>    1.5111    1.0000 </r>
       <r>    1.5291    1.0000 </r>
       <r>    1.6215    1.0000 </r>
       <r>    1.6469    1.0000 </r>
       <r>    1.7066    1.0000 </r>
       <r>    1.7265    1.0000 </r>
       <r>    1.8432    1.0000 </r>
       <r>    1.8473    1.0000 </r>
       <r>    1.8742    1.0000 </r>
       <r>    1.8761    1.0000 </r>
       <r>    1.8855    1.0000 </r>
       <r>    1.8972    1.0000 </r>
       <r>    1.9935    1.0000 </r>
       <r>    2.0003    1.0000 </r>
       <r>    2.0057    1.0000 </r>
       <r>    2.0098    1.0000 </r>
       <r>    2.0181    1.0000 </r>
       <r>    2.0299    1.0000 </r>
       <r>    2.0683    1.0000 </r>
       <r>    2.0687    1.0000 </r>
       <r>    2.0767    1.0000 </r>
       <r>    2.0789    1.0000 </r>
       <r>    2.0867    1.0000 </r>
       <r>    2.0917    1.0000 </r>
       <r>    2.2055    1.0000 </r>
       <r>    2.2143    1.0000 </r>
       <r>    2.2401    1.0000 </r>
       <r>    2.2437    1.0000 </r>
       <r>    2.2511    1.0000 </r>
       <r>    2.2557    1.0000 </r>
       <r>    2.2605    1.0000 </r>
       <r>    2.2679    1.0000 </r>
       <r>    2.2693    1.0000 </r>
       <r>    2.2761    1.0000 </r>
       <r>    2.3113    1.0000 </r>
       <r>    2.3235    1.0000 </r>
       <r>    2.3542    1.0000 </r>
       <r>    2.3579    1.0000 </r>
       <r>    2.3639    1.0000 </r>
       <r>    2.3742    1.0000 </r>
       <r>    2.3790    1.0000 </r>
       <r>    2.3827    1.0000 </r>
       <r>    2.6923    1.0000 </r>
       <r>    2.6996    1.0000 </r>
       <r>    2.7046    1.0000 </r>
       <r>    2.7088    1.0000 </r>
       <r>    2.7179    1.0000 </r>
       <r>    2.7237    1.0000 </r>
       <r>    2.7711    1.0000 </r>
       <r>    2.7739    1.0000 </r>
       <r>    2.8083    1.0000 </r>
       <r>    2.8126    1.0000 </r>
       <r>    6.6153    0.0000 </r>
       <r>    6.6532    0.0000 </r>
       <r>    6.6598    0.0000 </r>
       <r>    6.6999    0.0000 </r>
       <r>    6.7095    0.0000 </r>
       <r>    6.7143    0.0000 </r>
       <r>    6.7438    0.0000 </r>
       <r>    6.7446    0.0000 </r>
       <r>    6.7686    0.0000 </r>
       <r>    6.8029    0.0000 </r>
       <r>    6.8103    0.0000 </r>
       <r>    6.8381    0.0000 </r>
       <r>    6.8466    0.0000 </r>
       <r>    6.8754    0.0000 </r>
       <r>    6.9003    0.0000 </r>
       <r>    6.9203    0.0000 </r>
       <r>    6.9532    0.0000 </r>
       <r>    7.0512    0.0000 </r>
       <r>    7.3397    0.0000 </r>
       <r>    7.3523    0.0000 </r>
       <r>    7.3530    0.0000 </r>
       <r>    7.4203    0.0000 </r>
       <r>    7.4805    0.0000 </r>
       <r>    7.5151    0.0000 </r>
       <r>    7.7009    0.0000 </r>
       <r>    7.7432    0.0000 </r>
       <r>    7.7692    0.0000 </r>
       <r>    7.7927    0.0000 </r>
       <r>    7.8440    0.0000 </r>
       <r>    7.8748    0.0000 </r>
       <r>    7.9411    0.0000 </r>
       <r>    7.9921    0.0000 </r>
       <r>    8.0467    0.0000 </r>
       <r>    8.1202    0.0000 </r>
       <r>    8.1343    0.0000 </r>
       <r>    8.1767    0.0000 </r>
       <r>    8.2583    0.0000 </r>
       <r>    8.2995    0.0000 </r>
       <r>    8.3315    0.0000 </r>
       <r>    8.3659    0.0000 </r>
       <r>    8.3981    0.0000 </r>
       <r>    8.4099    0.0000 </r>
       <r>    8.4644    0.0000 </r>
       <r>    8.4784    0.0000 </r>
       <r>    8.4919    0.0000 </r>
       <r>    8.5339    0.0000 </r>
       <r>    8.5692    0.0000 </r>
       <r>    8.6491    0.0000 </r>
       <r>   10.6099    0.0000 </r>
       <r>   10.6234    0.0000 </r>
       <r>   10.6567    0.0000 </r>
       <r>   10.6701    0.0000 </r>
       <r>   10.7144    0.0000 </r>
       <r>   10.8185    0.0000 </r>
       <r>   10.8478    0.0000 </r>
       <r>   10.9502    0.0000 </r>
      </set>
     </set>
    </set>
   </array>
  </eigenvalues>
  <separator name="orbital magnetization" >
   <v name="MAGDIPOLOUT">      0.00000000      0.00000000      0.00000000</v>
  </separator>
 </calculation>
 <structure name="finalpos" >
  <crystal>
   <varray name="basis" >
    <v>       5.13357434      -2.96228015       9.19144201 </v>
    <v>       0.00246475       5.92614205       9.19058217 </v>
    <v>      -5.13097598      -2.96362602       9.18956419 </v>
   </varray>
   <i name="volume">    838.56743208 </i>
   <varray name="rec_basis" >
    <v>       0.09742342      -0.05626179       0.03625181 </v>
    <v>      -0.00002139       0.11249707       0.03626826 </v>
    <v>      -0.09742194      -0.05623624       0.03628759 </v>
   </varray>
  </crystal>
  <varray name="positions" >
   <v>       0.13834752       0.13936271       0.13984335 </v>
   <v>       0.39146324       0.38999630       0.39085144 </v>
   <v>       0.14028321       0.14032414       0.64092124 </v>
   <v>       0.39173469       0.39088444       0.89059988 </v>
   <v>       0.14005761       0.63914415       0.13990376 </v>
   <v>       0.38998511       0.89022976       0.39046082 </v>
   <v>       0.14027342       0.63856692       0.63942290 </v>
   <v>       0.39066873       0.89122478       0.89017412 </v>
   <v>       0.63968950       0.14081636       0.13851063 </v>
   <v>       0.89081879       0.39199278       0.39127564 </v>
   <v>       0.64044608       0.13979598       0.63895884 </v>
   <v>       0.89104424       0.39188824       0.88993991 </v>
   <v>       0.63987068       0.64050964       0.14005521 </v>
   <v>       0.88952244       0.89019616       0.39154151 </v>
   <v>       0.64095434       0.64008558       0.64144699 </v>
   <v>       0.89103108       0.89076076       0.89134632 </v>
   <v>      -0.00040763       0.00150112      -0.00324828 </v>
   <v>      -0.00061676       0.00003493       0.49763958 </v>
   <v>       0.25168038       0.24891337       0.74959517 </v>
   <v>      -0.00250010       0.49794372       0.00086033 </v>
   <v>       0.00052440       0.49715140       0.50088067 </v>
   <v>       0.49988249      -0.00261528       0.00090131 </v>
   <v>       0.49954620       0.50003968      -0.00214243 </v>
   <v>       0.75097315       0.74942469       0.24984287 </v>
   <v>       0.49985523       0.50129758       0.49655071 </v>
   <v>       0.74940214       0.75095878       0.74802348 </v>
   <v>       0.05623360       0.18120304       0.36059596 </v>
   <v>       0.36055215       0.05618073       0.18135900 </v>
   <v>       0.18067803       0.36043515       0.05635112 </v>
   <v>       0.43164615       0.30579781       0.11007695 </v>
   <v>       0.10933811       0.43208088       0.30572184 </v>
   <v>       0.30616879       0.11038237       0.43144631 </v>
   <v>       0.05540035       0.18155956       0.86034038 </v>
   <v>       0.35943918       0.05639020       0.68203455 </v>
   <v>       0.18159346       0.36067916       0.55556672 </v>
   <v>       0.43176800       0.30520898       0.61104129 </v>
   <v>       0.11066152       0.43074915       0.80539644 </v>
   <v>       0.30515946       0.11079423       0.93190663 </v>
   <v>       0.05604537       0.68076856       0.36081137 </v>
   <v>       0.36061507       0.55618152       0.18081868 </v>
   <v>       0.18040413       0.86090372       0.05629587 </v>
   <v>       0.43096027       0.80670950       0.10983535 </v>
   <v>       0.11018018       0.93120277       0.30647725 </v>
   <v>       0.30631393       0.60963452       0.43142758 </v>
   <v>       0.05642617       0.67983109       0.86072292 </v>
   <v>       0.36082901       0.55621291       0.68039936 </v>
   <v>       0.18050111       0.86073339       0.55625759 </v>
   <v>       0.43105925       0.80638098       0.60992686 </v>
   <v>       0.10974163       0.93076687       0.80662904 </v>
   <v>       0.30592914       0.60973059       0.93157562 </v>
   <v>       0.55668960       0.18089021       0.36049958 </v>
   <v>       0.86099568       0.05588109       0.18065345 </v>
   <v>       0.68094161       0.36072792       0.05606070 </v>
   <v>       0.93094987       0.30643726       0.10970186 </v>
   <v>       0.61015919       0.43137998       0.30635721 </v>
   <v>       0.80662739       0.10979363       0.43135599 </v>
   <v>       0.55625493       0.18016866       0.86082204 </v>
   <v>       0.86060460       0.05601788       0.68054061 </v>
   <v>       0.68056339       0.36084158       0.55626059 </v>
   <v>       0.93128773       0.30623948       0.60979445 </v>
   <v>       0.61008613       0.43101265       0.80636497 </v>
   <v>       0.80623116       0.10929440       0.93147945 </v>
   <v>       0.55554077       0.68183433       0.36007734 </v>
   <v>       0.86007458       0.55634829       0.18046819 </v>
   <v>       0.68107200       0.86046774       0.05575260 </v>
   <v>       0.93136114       0.80492582       0.11095065 </v>
   <v>       0.61067752       0.93165297       0.30547765 </v>
   <v>       0.80503784       0.61074302       0.43111591 </v>
   <v>       0.55556968       0.68082022       0.86090541 </v>
   <v>       0.86059508       0.55581627       0.68050717 </v>
   <v>       0.68097931       0.85972506       0.55655493 </v>
   <v>       0.93138973       0.80539064       0.61084254 </v>
   <v>       0.61024363       0.93134011       0.80571432 </v>
   <v>       0.80584636       0.61083297       0.93009391 </v>
   <v>       0.24862253       0.24992729       0.24762435 </v>
   <v>       0.24806756       0.74806531       0.24849505 </v>
   <v>       0.24752603       0.74745881       0.74934160 </v>
   <v>       0.74730972       0.24776208       0.24918815 </v>
   <v>       0.49682629      -0.00232810       0.50015434 </v>
   <v>       0.74834988       0.24827406       0.74832874 </v>
  </varray>
 </structure>
</modeling>
