Li(NbTa)O_3                             
           1
     5.147256   -2.971776    9.241702
     0.000000    5.943541    9.241702
    -5.147256   -2.971776    9.241702
   Li   Nb   O    Ta
  16  10  48   6
Direct configuration=     1
   0.14094405  0.14094430  0.14094405
   0.39094295  0.39094365  0.39094295
   0.14094405  0.14094430  0.64094405
   0.39094295  0.39094365  0.89094295
   0.14094405  0.64094430  0.14094405
   0.39094295  0.89094365  0.39094295
   0.14094405  0.64094430  0.64094405
   0.39094295  0.89094365  0.89094295
   0.64094405  0.14094430  0.14094405
   0.89094295  0.39094365  0.39094295
   0.64094405  0.14094430  0.64094405
   0.89094295  0.39094365  0.89094295
   0.64094405  0.64094430  0.14094405
   0.89094295  0.89094365  0.39094295
   0.64094405  0.64094430  0.64094405
   0.89094295  0.89094365  0.89094295
   0.00020505  0.00020505  0.00020505
   0.00020505  0.00020505  0.50020505
   0.25020430  0.25020475  0.75020430
   0.00020505  0.50020505  0.00020505
   0.00020505  0.50020505  0.50020505
   0.50020505  0.00020505  0.00020505
   0.50020505  0.50020505  0.00020505
   0.75020430  0.75020475  0.25020430
   0.50020505  0.50020505  0.50020505
   0.75020430  0.75020475  0.75020430
   0.05381235  0.18164315  0.36018735
   0.36018730  0.05381285  0.18164270
   0.18164285  0.36018755  0.05381245
   0.43164200  0.30381225  0.11018930
   0.11018940  0.43164240  0.30381175
   0.30381165  0.11019005  0.43164190
   0.05381235  0.18164315  0.86018735
   0.36018730  0.05381285  0.68164270
   0.18164285  0.36018755  0.55381245
   0.43164200  0.30381225  0.61018930
   0.11018940  0.43164240  0.80381175
   0.30381165  0.11019005  0.93164190
   0.05381235  0.68164315  0.36018735
   0.36018730  0.55381285  0.18164270
   0.18164285  0.86018755  0.05381245
   0.43164200  0.80381225  0.11018930
   0.11018940  0.93164240  0.30381175
   0.30381165  0.61019005  0.43164190
   0.05381235  0.68164315  0.86018735
   0.36018730  0.55381285  0.68164270
   0.18164285  0.86018755  0.55381245
   0.43164200  0.80381225  0.61018930
   0.11018940  0.93164240  0.80381175
   0.30381165  0.61019005  0.93164190
   0.55381235  0.18164315  0.36018735
   0.86018730  0.05381285  0.18164270
   0.68164285  0.36018755  0.05381245
   0.93164200  0.30381225  0.11018930
   0.61018940  0.43164240  0.30381175
   0.80381165  0.11019005  0.43164190
   0.55381235  0.18164315  0.86018735
   0.86018730  0.05381285  0.68164270
   0.68164285  0.36018755  0.55381245
   0.93164200  0.30381225  0.61018930
   0.61018940  0.43164240  0.80381175
   0.80381165  0.11019005  0.93164190
   0.55381235  0.68164315  0.36018735
   0.86018730  0.55381285  0.18164270
   0.68164285  0.86018755  0.05381245
   0.93164200  0.80381225  0.11018930
   0.61018940  0.93164240  0.30381175
   0.80381165  0.61019005  0.43164190
   0.55381235  0.68164315  0.86018735
   0.86018730  0.55381285  0.68164270
   0.68164285  0.86018755  0.55381245
   0.93164200  0.80381225  0.61018930
   0.61018940  0.93164240  0.80381175
   0.80381165  0.61019005  0.93164190
   0.25020430  0.25020475  0.25020430
   0.25020430  0.75020475  0.25020430
   0.25020430  0.75020475  0.75020430
   0.75020430  0.25020475  0.25020430
   0.50020505  0.00020505  0.50020505
   0.75020430  0.25020475  0.75020430
Li(NbTa)O_3                             
           1
     5.136614   -2.965649    9.222921
    -0.000036    5.931267    9.222935
    -5.136641   -2.965623    9.222945
   Li   Nb   O    Ta
  16  10  48   6
Direct configuration=     2
   0.14090160  0.14093594  0.14094700
   0.39096334  0.39093235  0.39096398
   0.14093106  0.14095259  0.64096442
   0.39096373  0.39096501  0.89095917
   0.14095861  0.64090541  0.14093950
   0.39096234  0.89092606  0.39094461
   0.14095556  0.64092533  0.64090937
   0.39096334  0.89097516  0.89090598
   0.64094401  0.14097846  0.14089501
   0.89095373  0.39097056  0.39094570
   0.64095440  0.14092658  0.64090636
   0.89096224  0.39095239  0.89093570
   0.64091536  0.64094012  0.14096417
   0.89091409  0.89094889  0.39099897
   0.64094094  0.64093761  0.64097577
   0.89094154  0.89096123  0.89097034
   0.00012117  0.00031620 -0.00010198
   0.00004130  0.00013612  0.50000019
   0.25023774  0.25006905  0.75010695
  -0.00003956  0.50003234  0.00028307
   0.00018819  0.49992428  0.50028499
   0.50019661 -0.00007969  0.00016264
   0.50013193  0.50020196 -0.00003986
   0.75026345  0.75004849  0.25017489
   0.50012541  0.50023559  0.49987829
   0.75011907  0.75022190  0.75006706
   0.05419747  0.18150324  0.36013832
   0.36010733  0.05419966  0.18153844
   0.18153942  0.36011106  0.05418193
   0.43190217  0.30417918  0.10990497
   0.10987873  0.43192236  0.30418524
   0.30436684  0.10973742  0.43203473
   0.05400279  0.18136254  0.86030498
   0.35987666  0.05421367  0.68193257
   0.18137826  0.36029442  0.55400727
   0.43141853  0.30404866  0.61026349
   0.11021743  0.43146117  0.80404934
   0.30403772  0.11024483  0.93144846
   0.05419057  0.68157711  0.36007862
   0.36011379  0.55419587  0.18153107
   0.18152737  0.86010700  0.05420415
   0.43196456  0.80424498  0.10983994
   0.10985618  0.93197003  0.30423189
   0.30421545  0.60985680  0.43196842
   0.05419720  0.68155541  0.86008768
   0.36009794  0.55419077  0.68155291
   0.18151682  0.86012627  0.55418669
   0.43204974  0.80437119  0.60972068
   0.10988646  0.93190279  0.80420519
   0.30418534  0.60989445  0.93191891
   0.55438878  0.18206772  0.35971080
   0.86014047  0.05415430  0.18151993
   0.68153844  0.36011750  0.05419371
   0.93199345  0.30423546  0.10982492
   0.60986560  0.43196366  0.30422726
   0.80426212  0.10984465  0.43197401
   0.55416800  0.18152548  0.86011353
   0.86013354  0.05415971  0.68151631
   0.68153342  0.36010400  0.55420140
   0.93192959  0.30420200  0.60986728
   0.60987036  0.43193437  0.80420997
   0.80421240  0.10984226  0.93196283
   0.55401864  0.68139857  0.36027417
   0.86027532  0.55403107  0.18137336
   0.68139290  0.86027260  0.05401059
   0.93139135  0.80401179  0.11027303
   0.61012503  0.93152523  0.30416338
   0.80399478  0.61029754  0.43135502
   0.55400471  0.68137084  0.86030165
   0.86025715  0.55402881  0.68140385
   0.68194326  0.85986982  0.55418591
   0.93145738  0.80404492  0.61024439
   0.61023375  0.93144034  0.80406352
   0.80405645  0.61023002  0.93144269
   0.24974057  0.24988123  0.24965971
   0.24975777  0.74971685  0.24976420
   0.24968387  0.74972837  0.74986556
   0.74963860  0.24974456  0.24981460
   0.49963307 -0.00036412  0.49992130
   0.74977848  0.24979765  0.74975734
Li(NbTa)O_3                             
           1
     5.126777   -2.959974    9.203688
    -0.000053    5.919864    9.203693
    -5.126745   -2.959895    9.203696
   Li   Nb   O    Ta
  16  10  48   6
Direct configuration=     3
   0.14078493  0.14089641  0.14093467
   0.39101189  0.39089711  0.39101229
   0.14090544  0.14096986  0.64100669
   0.39103047  0.39102104  0.89099364
   0.14098229  0.64080088  0.14092590
   0.39099810  0.89087595  0.39094166
   0.14097189  0.64085541  0.64081715
   0.39100937  0.89104716  0.89081009
   0.64092534  0.14106098  0.14077196
   0.89097948  0.39103015  0.39096173
   0.64095586  0.14087650  0.64079259
   0.89100655  0.39097640  0.89091314
   0.64083726  0.64092130  0.14100399
   0.89083847  0.89096251  0.39113714
   0.64094401  0.64091848  0.64105121
   0.89093726  0.89101407  0.89104015
  -0.00013452  0.00053045 -0.00088451
  -0.00039543 -0.00005989  0.49940335
   0.25033097  0.24970407  0.74981454
  -0.00066861  0.49949882  0.00035781
   0.00011734  0.49921471  0.50040409
   0.50006986 -0.00080010  0.00005022
   0.49992208  0.50007270 -0.00063596
   0.75033769  0.74969887  0.25007175
   0.49987002  0.50023869  0.49906507
   0.74986243  0.75023890  0.74960820
   0.05485406  0.18151880  0.35991412
   0.35981190  0.05485338  0.18160727
   0.18165328  0.35981238  0.05480360
   0.43209581  0.30459141  0.10964867
   0.10954063  0.43216954  0.30461446
   0.30510653  0.10920709  0.43239586
   0.05429026  0.18117574  0.86036365
   0.35949319  0.05478109  0.68224048
   0.18122532  0.36030050  0.55435253
   0.43131637  0.30443979  0.61025231
   0.11008327  0.43145311  0.80445103
   0.30443548  0.11016902  0.93143273
   0.05483502  0.68178110  0.35968871
   0.35978862  0.55487334  0.18165010
   0.18158407  0.85978537  0.05488703
   0.43228720  0.80488323  0.10939980
   0.10947841  0.93230198  0.30483042
   0.30473583  0.60947704  0.43232903
   0.05486063  0.68166906  0.85973484
   0.35976815  0.55483649  0.68168649
   0.18155380  0.85985672  0.55482822
   0.43248378  0.80509697  0.60914975
   0.10954603  0.93209410  0.80474511
   0.30462162  0.60960612  0.93216693
   0.55522329  0.18253786  0.35907799
   0.85991584  0.05469676  0.18159260
   0.68167549  0.35984096  0.05481188
   0.93241346  0.30486958  0.10932399
   0.60949163  0.43232671  0.30482073
   0.80491834  0.10943323  0.43234737
   0.55474978  0.18156687  0.85981635
   0.85988523  0.05471854  0.68157734
   0.68160568  0.35977247  0.55487955
   0.93219479  0.30473177  0.60947054
   0.60952646  0.43220315  0.80471380
   0.80473419  0.10940708  0.93231596
   0.55439578  0.68128771  0.36023417
   0.86023571  0.55444611  0.18117002
   0.68123239  0.86025659  0.05434407
   0.93120294  0.80428960  0.11029818
   0.60990468  0.93157223  0.30466347
   0.80423944  0.61036012  0.43109228
   0.55435370  0.68120906  0.86031696
   0.86019163  0.55439224  0.68128187
   0.68228184  0.85945968  0.55469093
   0.93148039  0.80442956  0.61019671
   0.61011967  0.93141532  0.80451913
   0.80452854  0.61009750  0.93139393
   0.24921565  0.24961381  0.24894905
   0.24919260  0.74907082  0.24925337
   0.24902367  0.74909422  0.74953000
   0.74878786  0.24914037  0.24945581
   0.49880445 -0.00110951  0.49973536
   0.74925037  0.24936279  0.74923928
Li(NbTa)O_3                             
           1
     5.124191   -2.958474    9.197249
     0.000054    5.916742    9.197157
    -5.123831   -2.958328    9.197096
   Li   Nb   O    Ta
  16  10  48   6
Direct configuration=     4
   0.14067802  0.14085296  0.14090602
   0.39105303  0.39085849  0.39105286
   0.14088430  0.14097572  0.64103000
   0.39108956  0.39106556  0.89102044
   0.14098167  0.64070391  0.14091633
   0.39102121  0.89083263  0.39092626
   0.14098180  0.64077565  0.64074497
   0.39103813  0.89111627  0.89072894
   0.64089329  0.14111959  0.14065967
   0.89100590  0.39109048  0.39097374
   0.64094642  0.14083254  0.64068986
   0.89105949  0.39101504  0.89088207
   0.64077021  0.64091311  0.14102376
   0.89076980  0.89096339  0.39125481
   0.64096121  0.64090535  0.64109962
   0.89093851  0.89105365  0.89110661
  -0.00034526  0.00052671 -0.00142538
  -0.00066390 -0.00023752  0.49892416
   0.25040275  0.24944284  0.74959880
  -0.00114492  0.49907868  0.00026344
   0.00000301  0.49875686  0.50030845
   0.49988572 -0.00129411 -0.00004757
   0.49965871  0.49992672 -0.00103612
   0.75036570  0.74944961  0.24986771
   0.49961688  0.50025476  0.49849950
   0.74969235  0.75020890  0.74915263
   0.05527253  0.18156300  0.35978906
   0.35961880  0.05525944  0.18170610
   0.18179383  0.35960175  0.05523951
   0.43218392  0.30483294  0.10953905
   0.10938319  0.43225495  0.30486902
   0.30550527  0.10901326  0.43248858
   0.05449053  0.18124654  0.86030576
   0.35929988  0.05512653  0.68237656
   0.18130193  0.36019058  0.55465627
   0.43139489  0.30470715  0.61018413
   0.10999449  0.43148310  0.80471180
   0.30468832  0.11008405  0.93154080
   0.05524543  0.68194234  0.35945264
   0.35962627  0.55528364  0.18173762
   0.18162080  0.85960039  0.05532372
   0.43235417  0.80527519  0.10920591
   0.10935492  0.93237248  0.30520243
   0.30503035  0.60931542  0.43247658
   0.05530522  0.68173358  0.85952476
   0.35960423  0.55524004  0.68175915
   0.18155213  0.85972739  0.55523389
   0.43263986  0.80547153  0.60891416
   0.10939329  0.93212507  0.80510291
   0.30489274  0.60947775  0.93228713
   0.55569376  0.18264765  0.35882206
   0.85978095  0.05504694  0.18169712
   0.68181992  0.35968620  0.05519245
   0.93248369  0.30523549  0.10914237
   0.60935853  0.43245368  0.30518339
   0.80529600  0.10929655  0.43246038
   0.55513314  0.18161316  0.85960915
   0.85974692  0.05506931  0.68163923
   0.68165754  0.35955752  0.55533446
   0.93226695  0.30506812  0.60928006
   0.60937028  0.43231561  0.80503591
   0.80503027  0.10921317  0.93245283
   0.55466359  0.68131737  0.36015520
   0.86011219  0.55477678  0.18116813
   0.68121973  0.86018268  0.05461765
   0.93123748  0.80448787  0.11023663
   0.60971843  0.93173424  0.30499089
   0.80441660  0.61028615  0.43112869
   0.55460856  0.68119831  0.86028741
   0.86006943  0.55464890  0.68134271
   0.68237322  0.85928325  0.55501512
   0.93162957  0.80469002  0.61013593
   0.60998682  0.93150818  0.80485948
   0.80485648  0.60998638  0.93143139
   0.24895900  0.24949808  0.24851882
   0.24882691  0.74875879  0.24896667
   0.24859697  0.74871031  0.74933444
   0.74836026  0.24875588  0.24929616
   0.49833396 -0.00150819  0.49961537
   0.74895750  0.24905368  0.74895519
Li(NbTa)O_3                             
           1
     5.123325   -2.957595    9.194161
     0.000470    5.915429    9.193979
    -5.122478   -2.957649    9.193671
   Li   Nb   O    Ta
  16  10  48   6
Direct configuration=     5
   0.14057529  0.14080485  0.14088137
   0.39109457  0.39082125  0.39106962
   0.14086577  0.14096672  0.64103959
   0.39115188  0.39109796  0.89103174
   0.14098393  0.64060784  0.14089976
   0.39102170  0.89079812  0.39091258
   0.14099696  0.64069596  0.64067774
   0.39105210  0.89116647  0.89066136
   0.64085452  0.14117385  0.14055141
   0.89102281  0.39112367  0.39099812
   0.64094109  0.14079938  0.64059501
   0.89108890  0.39104532  0.89086416
   0.64069842  0.64090327  0.14103576
   0.89070448  0.89096324  0.39134258
   0.64096068  0.64088480  0.64115080
   0.89093638  0.89109393  0.89114925
  -0.00049747  0.00056578 -0.00178196
  -0.00079940 -0.00027809  0.49860656
   0.25050158  0.24924531  0.74952074
  -0.00137510  0.49874128  0.00021585
   0.00000935  0.49841690  0.50025065
   0.49974428 -0.00158055  0.00000329
   0.49952896  0.49974344 -0.00126400
   0.75030568  0.74940328  0.24977397
   0.49949952  0.50026627  0.49816586
   0.74955097  0.75023305  0.74887543
   0.05549965  0.18151918  0.35981169
   0.35961332  0.05546959  0.18165121
   0.18174614  0.35962010  0.05542737
   0.43219250  0.30496954  0.10953943
   0.10930119  0.43229794  0.30501886
   0.30570613  0.10904202  0.43238886
   0.05462110  0.18131776  0.86028045
   0.35924643  0.05536184  0.68237325
   0.18133330  0.36016944  0.55483032
   0.43143160  0.30484423  0.61019355
   0.10998962  0.43146705  0.80483783
   0.30482372  0.11009099  0.93158150
   0.05541447  0.68191593  0.35945952
   0.35962450  0.55550401  0.18172520
   0.18153056  0.85960490  0.05555181
   0.43226108  0.80551829  0.10918238
   0.10937760  0.93230850  0.30541976
   0.30518043  0.60930410  0.43247536
   0.05551927  0.68160656  0.85955328
   0.35962955  0.55544438  0.68169744
   0.18145731  0.85975384  0.55545061
   0.43258457  0.80562952  0.60892615
   0.10936163  0.93205985  0.80534794
   0.30503945  0.60948274  0.93229394
   0.55592081  0.18251912  0.35885543
   0.85982992  0.05520217  0.18167610
   0.68182109  0.35972779  0.05536700
   0.93241824  0.30546679  0.10911783
   0.60938565  0.43242220  0.30540210
   0.80551528  0.10930251  0.43244210
   0.55532392  0.18151326  0.85960243
   0.85977092  0.05524263  0.68158506
   0.68154789  0.35956222  0.55557152
   0.93224647  0.30530613  0.60920606
   0.60937273  0.43228769  0.80522017
   0.80521089  0.10914535  0.93247469
   0.55486090  0.68136158  0.36009655
   0.86005375  0.55502341  0.18111302
   0.68121774  0.86014051  0.05479791
   0.93125793  0.80457997  0.11023952
   0.60974065  0.93174543  0.30509599
   0.80452627  0.61026010  0.43115011
   0.55480242  0.68120504  0.86028408
   0.86004323  0.55481669  0.68131151
   0.68235752  0.85923359  0.55522148
   0.93169598  0.80480116  0.61018430
   0.60997138  0.93152196  0.80501668
   0.80506697  0.61000958  0.93133300
   0.24888271  0.24941411  0.24834787
   0.24866201  0.74859664  0.24883223
   0.24839836  0.74848652  0.74921137
   0.74808276  0.24857056  0.24923484
   0.49802844 -0.00168093  0.49959334
   0.74873942  0.24889863  0.74882513
Li(NbTa)O_3                             
           1
     5.123872   -2.957589    9.194101
     0.000669    5.915841    9.193945
    -5.122797   -2.957741    9.193453
   Li   Nb   O    Ta
  16  10  48   6
Direct configuration=     6
   0.14052373  0.14078046  0.14086112
   0.39110694  0.39080226  0.39107931
   0.14085286  0.14096362  0.64104302
   0.39117848  0.39110929  0.89103339
   0.14097647  0.64056162  0.14088987
   0.39101905  0.89077844  0.39090248
   0.14099802  0.64064918  0.64064870
   0.39105747  0.89118830  0.89062907
   0.64083639  0.14119144  0.14049577
   0.89102600  0.39115013  0.39100709
   0.64093474  0.14077913  0.64055256
   0.89110370  0.39106870  0.89084714
   0.64067125  0.64090175  0.14102985
   0.89066969  0.89095430  0.39138329
   0.64096834  0.64087186  0.64117056
   0.89093299  0.89110496  0.89117162
  -0.00054745  0.00055012 -0.00191043
  -0.00084406 -0.00032268  0.49851401
   0.25051381  0.24918236  0.74950686
  -0.00149692  0.49862823  0.00019011
  -0.00001415  0.49829424  0.50023289
   0.49972160 -0.00171369  0.00000683
   0.49948528  0.49969906 -0.00136570
   0.75031413  0.74934268  0.24972485
   0.49946388  0.50027208  0.49803939
   0.74949695  0.75020488  0.74878740
   0.05558013  0.18150611  0.35984481
   0.35961927  0.05555128  0.18164059
   0.18173079  0.35963386  0.05550229
   0.43219824  0.30502527  0.10955534
   0.10930294  0.43229682  0.30505715
   0.30577155  0.10908410  0.43232988
   0.05466613  0.18136597  0.86027546
   0.35925621  0.05544904  0.68234138
   0.18136877  0.36015079  0.55490253
   0.43146893  0.30490322  0.61020006
   0.11001704  0.43144910  0.80487026
   0.30487158  0.11009481  0.93161288
   0.05546496  0.68189075  0.35949977
   0.35966922  0.55557120  0.18168962
   0.18146343  0.85964704  0.05562847
   0.43218255  0.80561072  0.10921065
   0.10940987  0.93227971  0.30549243
   0.30523444  0.60932250  0.43245192
   0.05560167  0.68152770  0.85959504
   0.35967789  0.55552103  0.68164533
   0.18139449  0.85980185  0.55552337
   0.43252882  0.80567903  0.60896883
   0.10937762  0.93202195  0.80542858
   0.30509793  0.60950469  0.93227786
   0.55598577  0.18243359  0.35891802
   0.85987285  0.05526580  0.18165575
   0.68179692  0.35977876  0.05542678
   0.93233344  0.30553422  0.10916427
   0.60942364  0.43239274  0.30547144
   0.80558953  0.10933918  0.43240447
   0.55539516  0.18146531  0.85962232
   0.85981356  0.05531505  0.68153294
   0.68147310  0.35959642  0.55566032
   0.93219741  0.30538583  0.60921581
   0.60939289  0.43226347  0.80528773
   0.80526942  0.10914608  0.93245832
   0.55491998  0.68139083  0.36009087
   0.86004296  0.55513137  0.18107694
   0.68121266  0.86013260  0.05487201
   0.93128175  0.80462891  0.11024376
   0.60974220  0.93178690  0.30513262
   0.80456938  0.61024795  0.43117480
   0.55486346  0.68118501  0.86031779
   0.86005735  0.55488728  0.68127670
   0.68230351  0.85925732  0.55528936
   0.93173388  0.80485265  0.61021196
   0.60997025  0.93154160  0.80507017
   0.80514765  0.61004510  0.93126349
   0.24883124  0.24940495  0.24827393
   0.24860249  0.74851413  0.24877665
   0.24830064  0.74837056  0.74918785
   0.74801963  0.24848041  0.24919265
   0.49793897 -0.00177812  0.49960235
   0.74866979  0.24881085  0.74876686
Li(NbTa)O_3                             
           1
     5.124190   -2.957818    9.194203
     0.000811    5.916092    9.193901
    -5.122948   -2.958038    9.193441
   Li   Nb   O    Ta
  16  10  48   6
Direct configuration=     7
   0.14046301  0.14074667  0.14084557
   0.39112359  0.39077984  0.39108232
   0.14083600  0.14095387  0.64104626
   0.39120721  0.39111964  0.89103209
   0.14096763  0.64051179  0.14087610
   0.39100776  0.89075627  0.39089300
   0.14099741  0.64060105  0.64061420
   0.39105596  0.89120301  0.89059894
   0.64081275  0.14120941  0.14043577
   0.89102843  0.39116937  0.39101831
   0.64092897  0.14075874  0.64050351
   0.89111324  0.39108947  0.89082769
   0.64063696  0.64089480  0.14102429
   0.89063620  0.89094332  0.39141749
   0.64097034  0.64085443  0.64119368
   0.89093431  0.89111388  0.89118733
  -0.00056728  0.00058550 -0.00201341
  -0.00085017 -0.00031177  0.49843004
   0.25056428  0.24914073  0.74949879
  -0.00156356  0.49855438  0.00019787
   0.00000737  0.49821068  0.50022588
   0.49970331 -0.00179080  0.00005559
   0.49945408  0.49968586 -0.00142555
   0.75032291  0.74933860  0.24971322
   0.49944783  0.50032710  0.49793499
   0.74947925  0.75022668  0.74869690
   0.05563864  0.18145592  0.35990692
   0.35968315  0.05558825  0.18157517
   0.18164927  0.35971358  0.05552566
   0.43217973  0.30505103  0.10959649
   0.10931943  0.43227060  0.30508565
   0.30580160  0.10917363  0.43223546
   0.05470928  0.18138213  0.86028881
   0.35928103  0.05552246  0.68229208
   0.18137661  0.36017029  0.55494911
   0.43147109  0.30491913  0.61024387
   0.11006920  0.43139825  0.80488429
   0.30489074  0.11013554  0.93162051
   0.05546988  0.68179109  0.35960719
   0.35976702  0.55559124  0.18161181
   0.18134873  0.85974155  0.05566632
   0.43208785  0.80568278  0.10925591
   0.10948462  0.93219358  0.30554546
   0.30526960  0.60936818  0.43240082
   0.05564185  0.68136785  0.85970569
   0.35977608  0.55554769  0.68155250
   0.18131046  0.85988182  0.55556607
   0.43241976  0.80568701  0.60906580
   0.10942432  0.93193346  0.80550338
   0.30513734  0.60955259  0.93223350
   0.55601256  0.18228580  0.35904265
   0.85997302  0.05528285  0.18158664
   0.68173395  0.35987551  0.05544625
   0.93222764  0.30558431  0.10923169
   0.60950143  0.43230825  0.30552874
   0.80563052  0.10941201  0.43233288
   0.55542914  0.18135156  0.85970478
   0.85988759  0.05535150  0.68145972
   0.68135954  0.35967913  0.55571032
   0.93210334  0.30544703  0.60926201
   0.60945695  0.43218221  0.80533715
   0.80529764  0.10918752  0.93239738
   0.55497686  0.68139508  0.36009334
   0.86005826  0.55521579  0.18100420
   0.68119033  0.86014428  0.05493180
   0.93127562  0.80464052  0.11027854
   0.60981174  0.93176422  0.30512004
   0.80458895  0.61027423  0.43116655
   0.55492390  0.68114340  0.86036675
   0.86009437  0.55493724  0.68121320
   0.68222453  0.85930507  0.55534579
   0.93171202  0.80485696  0.61029110
   0.61000576  0.93151552  0.80509384
   0.80520130  0.61011831  0.93115618
   0.24881153  0.24943655  0.24823598
   0.24854136  0.74849448  0.24875673
   0.24823078  0.74832379  0.74918002
   0.74796052  0.24843786  0.24918783
   0.49787240 -0.00182147  0.49962985
   0.74863659  0.24876633  0.74873307
Li(NbTa)O_3                             
           1
     5.125804   -2.958693    9.195217
     0.001182    5.917738    9.194676
    -5.124107   -2.959078    9.194148
   Li   Nb   O    Ta
  16  10  48   6
Direct configuration=     8
   0.14027306  0.14064081  0.14078630
   0.39117016  0.39070610  0.39109363
   0.14077833  0.14092483  0.64105504
   0.39129400  0.39114430  0.89102184
   0.14093002  0.64036060  0.14082491
   0.39096837  0.89068668  0.39085759
   0.14098582  0.64044056  0.64051073
   0.39105084  0.89124298  0.89050755
   0.64073702  0.14125689  0.14024501
   0.89102386  0.39123752  0.39105034
   0.64090172  0.14069236  0.64035488
   0.89113853  0.39116113  0.89075802
   0.64053731  0.64087356  0.14099197
   0.89052629  0.89090361  0.39151783
   0.64097944  0.64079052  0.64126416
   0.89093244  0.89112950  0.89123945
  -0.00063187  0.00071773 -0.00230709
  -0.00088383 -0.00028516  0.49822958
   0.25071200  0.24904168  0.74949303
  -0.00179397  0.49835689  0.00023703
   0.00004926  0.49794958  0.50027315
   0.49969202 -0.00203022  0.00017075
   0.49940101  0.49968890 -0.00163113
   0.75039005  0.74930095  0.24967129
   0.49941672  0.50048582  0.49763881
   0.74941911  0.75027755  0.74849410
   0.05581555  0.18132234  0.36007976
   0.35983643  0.05571954  0.18142614
   0.18143086  0.35991657  0.05562580
   0.43212396  0.30512617  0.10971770
   0.10935704  0.43221122  0.30516762
   0.30589435  0.10942654  0.43197842
   0.05482864  0.18141809  0.86033200
   0.35934790  0.05572624  0.68215944
   0.18139340  0.36023638  0.55507410
   0.43149124  0.30496642  0.61036817
   0.11022637  0.43124567  0.80492358
   0.30493923  0.11025688  0.93164513
   0.05550872  0.68152719  0.35989265
   0.36003217  0.55566797  0.18140187
   0.18103186  0.85999833  0.05579808
   0.43178043  0.80588336  0.10940869
   0.10968321  0.93196167  0.30570975
   0.30537025  0.60950971  0.43223239
   0.05578837  0.68093901  0.85998958
   0.36004796  0.55564133  0.68129101
   0.18106789  0.86011239  0.55570059
   0.43211120  0.80572668  0.60933385
   0.10955758  0.93168296  0.80571317
   0.30524975  0.60969235  0.93209671
   0.55611272  0.18188056  0.35938207
   0.86026214  0.05534162  0.18138751
   0.68154346  0.36015051  0.05552568
   0.93191022  0.30571467  0.10943560
   0.60971555  0.43207085  0.30569647
   0.80576528  0.10960462  0.43213334
   0.55554803  0.18103024  0.85993477
   0.86011225  0.05546453  0.68123053
   0.68104050  0.35991213  0.55586406
   0.93184291  0.30561827  0.60938691
   0.60963737  0.43194235  0.80548713
   0.80538961  0.10929909  0.93221745
   0.55513205  0.68142168  0.36009679
   0.86009344  0.55546672  0.18079892
   0.68112432  0.86017613  0.05511140
   0.93126952  0.80468189  0.11037267
   0.60999148  0.93172712  0.30510407
   0.80464783  0.61034884  0.43114394
   0.55508811  0.68100879  0.86052048
   0.86021950  0.55508079  0.68100185
   0.68198419  0.85944614  0.55550632
   0.93167277  0.80489335  0.61048649
   0.61011393  0.93143384  0.80515932
   0.80535270  0.61033861  0.93082965
   0.24876431  0.24952446  0.24807987
   0.24839714  0.74840096  0.24867271
   0.24802060  0.74814601  0.74918450
   0.74780153  0.24830790  0.24913682
   0.49767220 -0.00198806  0.49972046
   0.74851748  0.24863272  0.74863163
Li(NbTa)O_3                             
           1
     5.128021   -2.959714    9.196458
     0.001574    5.920158    9.195820
    -5.125865   -2.960286    9.195073
   Li   Nb   O    Ta
  16  10  48   6
Direct configuration=     9
   0.14003525  0.14049902  0.14070385
   0.39122349  0.39060388  0.39110974
   0.14070471  0.14088753  0.64105904
   0.39139915  0.39116362  0.89100173
   0.14086694  0.64017491  0.14075275
   0.39090938  0.89060365  0.39080463
   0.14095893  0.64022768  0.64037861
   0.39103665  0.89128921  0.89039603
   0.64063327  0.14130189  0.14000492
   0.89100835  0.39132989  0.39108737
   0.64085591  0.14060691  0.64016564
   0.89116655  0.39125631  0.89065463
   0.64041643  0.64084622  0.14093682
   0.89038621  0.89084426  0.39163245
   0.64099505  0.64069886  0.64134386
   0.89092673  0.89113345  0.89130661
  -0.00069001  0.00090084 -0.00264434
  -0.00090637 -0.00024983  0.49800356
   0.25091561  0.24894043  0.74948433
  -0.00206600  0.49813492  0.00031403
   0.00011753  0.49763079  0.50036459
   0.49969801 -0.00231241  0.00031300
   0.49936231  0.49972193 -0.00187005
   0.75051352  0.74925685  0.24964326
   0.49939807  0.50068491  0.49728475
   0.74937529  0.75036428  0.74826373
   0.05602849  0.18117433  0.36027308
   0.36000697  0.05589140  0.18126248
   0.18117233  0.36013644  0.05576933
   0.43206166  0.30523328  0.10984580
   0.10939694  0.43214524  0.30526550
   0.30601336  0.10970879  0.43169638
   0.05496508  0.18144071  0.86038760
   0.35942210  0.05595155  0.68201269
   0.18139345  0.36032545  0.55521158
   0.43151063  0.30502981  0.61051626
   0.11040020  0.43106894  0.80498460
   0.30499273  0.11040031  0.93167654
   0.05559450  0.68122876  0.36020077
   0.36032529  0.55577751  0.18116405
   0.18067111  0.86028549  0.05597196
   0.43142289  0.80611494  0.10958301
   0.10989411  0.93169544  0.30591366
   0.30550608  0.60967443  0.43201040
   0.05599046  0.68045452  0.86028921
   0.36034061  0.55577883  0.68099728
   0.18079373  0.86036100  0.55587961
   0.43175205  0.80580295  0.60962559
   0.10969698  0.93139527  0.80595122
   0.30539220  0.60983886  0.93192874
   0.55626557  0.18144619  0.35974720
   0.86058043  0.05544002  0.18115308
   0.68131859  0.36045324  0.05564711
   0.93154703  0.30587020  0.10965944
   0.60994657  0.43179920  0.30589425
   0.80594457  0.10981011  0.43189145
   0.55571933  0.18066504  0.86019038
   0.86035866  0.05561509  0.68096796
   0.68067985  0.36017496  0.55605707
   0.93153551  0.30580568  0.60953667
   0.60982995  0.43165652  0.80567402
   0.80550818  0.10941708  0.93200018
   0.55530037  0.68145215  0.36010224
   0.86012764  0.55575777  0.18055477
   0.68104042  0.86021608  0.05531596
   0.93125795  0.80474063  0.11048017
   0.61018978  0.93168200  0.30511589
   0.80472008  0.61044443  0.43109964
   0.55527562  0.68085193  0.86069191
   0.86035224  0.55525876  0.68076348
   0.68170846  0.85959549  0.55570353
   0.93161311  0.80495826  0.61069654
   0.61023222  0.93132942  0.80524321
   0.80553512  0.61057750  0.93045728
   0.24871687  0.24961950  0.24787752
   0.24821462  0.74827392  0.24858483
   0.24776362  0.74791599  0.74921355
   0.74759782  0.24812709  0.24909529
   0.49741490 -0.00219805  0.49982312
   0.74837517  0.24847757  0.74850378
Li(NbTa)O_3                             
           1
     5.128994   -2.960146    9.196688
     0.001686    5.921253    9.196062
    -5.126734   -2.960788    9.195223
   Li   Nb   O    Ta
  16  10  48   6
Direct configuration=    10
   0.13992018  0.14042173  0.14065780
   0.39124533  0.39054578  0.39111666
   0.14066800  0.14086620  0.64105484
   0.39144626  0.39116160  0.89098473
   0.14082172  0.64008972  0.14071019
   0.39087052  0.89056732  0.39077234
   0.14093398  0.64011497  0.64031326