 vasp.5.4.4.18Apr17-6-g9f103f2a35 (build Mar 05 2020 17:21:05) complex          
  
 executed on Linux justhpc1_p2018 date 2024.04.10  19:38:03
 running on   72 total cores
 distrk:  each k-point on   72 cores,    1 groups
 distr:  one band on NCORES_PER_BAND=   1 cores,   72 groups


--------------------------------------------------------------------------------------------------------


 INCAR:
 POTCAR:    PAW_PBE Li 17Jan2003                  
 POTCAR:    PAW_PBE Nb_sv 25May2007               
 POTCAR:    PAW_PBE O 08Apr2002                   
 POTCAR:    PAW_PBE Ta 17Jan2003                  

 ----------------------------------------------------------------------------- 
|                                                                             |
|           W    W    AA    RRRRR   N    N  II  N    N   GGGG   !!!           |
|           W    W   A  A   R    R  NN   N  II  NN   N  G    G  !!!           |
|           W    W  A    A  R    R  N N  N  II  N N  N  G       !!!           |
|           W WW W  AAAAAA  RRRRR   N  N N  II  N  N N  G  GGG   !            |
|           WW  WW  A    A  R   R   N   NN  II  N   NN  G    G                |
|           W    W  A    A  R    R  N    N  II  N    N   GGGG   !!!           |
|                                                                             |
|      For optimal performance we recommend to set                            |
|        NCORE= 4 - approx SQRT( number of cores)                             |
|      NCORE specifies how many cores store one orbital (NPAR=cpu/NCORE).     |
|      This setting can  greatly improve the performance of VASP for DFT.     |
|      The default,   NCORE=1            might be grossly inefficient         |
|      on modern multi-core architectures or massively parallel machines.     |
|      Do your own testing !!!!                                               |
|      Unfortunately you need to use the default for GW and RPA calculations. |
|      (for HF NCORE is supported but not extensively tested yet)             |
|                                                                             |
 ----------------------------------------------------------------------------- 

 POTCAR:    PAW_PBE Li 17Jan2003                  
  local pseudopotential read in
  partial core-charges read in
  partial kinetic energy density read in
  atomic valenz-charges read in
  non local Contribution for L=           0  read in
    real space projection operators read in
  non local Contribution for L=           0  read in
    real space projection operators read in
  non local Contribution for L=           1  read in
    real space projection operators read in
    PAW grid and wavefunctions read in
 
   number of l-projection  operators is LMAX  =           3
   number of lm-projection operators is LMMAX =           5
 
 POTCAR:    PAW_PBE Nb_sv 25May2007               
  local pseudopotential read in
  partial core-charges read in
  partial kinetic energy density read in
  atomic valenz-charges read in
  non local Contribution for L=           0  read in
    real space projection operators read in
  non local Contribution for L=           0  read in
    real space projection operators read in
  non local Contribution for L=           1  read in
    real space projection operators read in
  non local Contribution for L=           1  read in
    real space projection operators read in
  non local Contribution for L=           2  read in
    real space projection operators read in
  non local Contribution for L=           2  read in
    real space projection operators read in
    PAW grid and wavefunctions read in
 
   number of l-projection  operators is LMAX  =           6
   number of lm-projection operators is LMMAX =          18
 
 POTCAR:    PAW_PBE O 08Apr2002                   
  local pseudopotential read in
  partial core-charges read in
  partial kinetic energy density read in
  kinetic energy density of atom read in
  atomic valenz-charges read in
  non local Contribution for L=           0  read in
    real space projection operators read in
  non local Contribution for L=           0  read in
    real space projection operators read in
  non local Contribution for L=           1  read in
    real space projection operators read in
  non local Contribution for L=           1  read in
    real space projection operators read in
    PAW grid and wavefunctions read in
 
   number of l-projection  operators is LMAX  =           4
   number of lm-projection operators is LMMAX =           8
 
 POTCAR:    PAW_PBE Ta 17Jan2003                  
  local pseudopotential read in
  partial core-charges read in
  partial kinetic energy density read in
  atomic valenz-charges read in
  non local Contribution for L=           2  read in
    real space projection operators read in
  non local Contribution for L=           2  read in
    real space projection operators read in
  non local Contribution for L=           0  read in
    real space projection operators read in
  non local Contribution for L=           0  read in
    real space projection operators read in
  non local Contribution for L=           1  read in
    real space projection operators read in
  non local Contribution for L=           1  read in
    real space projection operators read in
    PAW grid and wavefunctions read in
 
   number of l-projection  operators is LMAX  =           6
   number of lm-projection operators is LMMAX =          18
 
 Optimization of the real space projectors (new method)

 maximal supplied QI-value         = 18.33
 optimisation between [QCUT,QGAM] = [ 11.00, 22.18] = [ 33.87,137.76] Ry 
 Optimized for a Real-space Cutoff    1.27 Angstroem

   l    n(q)    QCUT    max X(q) W(low)/X(q) W(high)/X(q)  e(spline) 
   0      8    10.998    33.825    0.29E-04    0.16E-03    0.54E-07
   0      8    10.998     8.944    0.19E-04    0.12E-03    0.42E-07
   1      8    10.998     4.214    0.16E-03    0.32E-04    0.49E-07
 Optimization of the real space projectors (new method)

 maximal supplied QI-value         = 15.68
 optimisation between [QCUT,QGAM] = [ 11.14, 22.27] = [ 34.73,138.91] Ry 
 Optimized for a Real-space Cutoff    1.75 Angstroem

   l    n(q)    QCUT    max X(q) W(low)/X(q) W(high)/X(q)  e(spline) 
   0     12    11.136    10.201    0.25E-04    0.67E-06    0.52E-07
   0     12    11.136     8.174    0.39E-04    0.20E-05    0.97E-07
   1     11    11.136     3.488    0.15E-05    0.92E-05    0.13E-06
   1     11    11.136     4.917    0.87E-05    0.65E-04    0.82E-06
   2     11    11.136   153.744    0.20E-03    0.19E-03    0.13E-05
   2     11    11.136   126.342    0.20E-03    0.19E-03    0.13E-05
 Optimization of the real space projectors (new method)

 maximal supplied QI-value         = 24.76
 optimisation between [QCUT,QGAM] = [ 11.14, 22.28] = [ 34.75,139.00] Ry 
 Optimized for a Real-space Cutoff    1.19 Angstroem

   l    n(q)    QCUT    max X(q) W(low)/X(q) W(high)/X(q)  e(spline) 
   0      8    11.140    20.381    0.23E-03    0.52E-03    0.22E-06
   0      8    11.140    15.268    0.24E-03    0.55E-03    0.24E-06
   1      7    11.140     5.964    0.11E-03    0.44E-03    0.26E-06
   1      7    11.140     5.382    0.84E-04    0.37E-03    0.23E-06
 Optimization of the real space projectors (new method)

 maximal supplied QI-value         = 12.85
 optimisation between [QCUT,QGAM] = [ 11.05, 22.23] = [ 34.20,138.39] Ry 
 Optimized for a Real-space Cutoff    1.65 Angstroem

   l    n(q)    QCUT    max X(q) W(low)/X(q) W(high)/X(q)  e(spline) 
   2     10    11.051    62.315    0.21E-03    0.15E-03    0.40E-06
   2     10    11.051    52.185    0.21E-03    0.15E-03    0.40E-06
   0     11    11.051   103.837    0.25E-04    0.82E-06    0.35E-06
   0     11    11.051    59.728    0.19E-04    0.76E-06    0.31E-06
   1     11    11.051    13.958    0.72E-04    0.92E-04    0.65E-06
   1     11    11.051     8.441    0.56E-04    0.61E-04    0.46E-06

 ----------------------------------------------------------------------------- 
|                                                                             |
|  ADVICE TO THIS USER RUNNING 'VASP/VAMP'   (HEAR YOUR MASTER'S VOICE ...):  |
|                                                                             |
|      You enforced a specific xc-type in the INCAR file,                     |
|      a different type was found on the POTCAR file                          |
|          I HOPE YOU KNOW, WHAT YOU ARE  DOING                               |
|                                                                             |
 ----------------------------------------------------------------------------- 

  PAW_PBE Li 17Jan2003                  :
 energy of atom  1       EATOM=   -5.3001
 kinetic energy error for atom=    0.0000 (will be added to EATOM!!)
  PAW_PBE Nb_sv 25May2007               :
 energy of atom  2       EATOM=-1555.1913
 kinetic energy error for atom=    0.0086 (will be added to EATOM!!)
  PAW_PBE O 08Apr2002                   :
 energy of atom  3       EATOM= -432.3788
 kinetic energy error for atom=    0.0273 (will be added to EATOM!!)
  PAW_PBE Ta 17Jan2003                  :
 energy of atom  4       EATOM= -130.6506
 kinetic energy error for atom=    0.0015 (will be added to EATOM!!)
 
 
 POSCAR: Li Nb  O Ta + -10 %                     
  positions in direct lattice
  velocities in cartesian coordinates
 exchange correlation table for  LEXCH =       14
   RHO(1)=    0.500       N(1)  =     2000
   RHO(2)=  100.500       N(2)  =     4000
 


--------------------------------------------------------------------------------------------------------


 ion  position               nearest neighbor table
   1  0.138  0.139  0.140-  38 1.96  43 1.96  54 1.96  27 2.20  29 2.20  28 2.21  75 2.92  18 2.93
                            20 2.94  22 2.96  78 3.25  76 3.25
   2  0.391  0.390  0.391-  51 1.97  35 1.97  40 1.98  55 2.17  44 2.17  36 2.18  25 2.89  78 2.92
                            76 2.94  19 2.94  79 3.26
   3  0.140  0.140  0.641-  32 1.97  60 1.97  49 1.97  33 2.17  34 2.17  35 2.18  17 2.92  19 2.92
                            21 2.92  79 2.92  80 3.26  75 3.27  77 3.27
   4  0.392  0.391  0.891-  57 1.98  46 1.98  29 1.99  61 2.16  50 2.16  30 2.17  23 2.88  80 2.93
                            77 2.93  75 2.93
   5  0.140  0.639  0.140-  31 1.96  50 1.96  66 1.96  40 2.19  39 2.19  41 2.20  76 2.89  23 2.94
                            21 2.96  17 2.97  75 3.23  77 3.25
   6  0.390  0.890  0.390-  63 1.96  28 1.97  47 1.97  48 2.18  32 2.18  67 2.19  79 2.87  77 2.94
                            75 2.95  24 2.96
   7  0.140  0.639  0.639-  44 1.96  37 1.96  72 1.96  46 2.19  45 2.20  47 2.20  77 2.89  25 2.94
                            18 2.96  20 2.96  76 3.25
   8  0.391  0.891  0.890-  34 1.96  69 1.97  41 1.98  73 2.17  42 2.17  38 2.18  22 2.89  19 2.93
                            76 2.94  26 2.94  79 3.25
   9  0.640  0.141  0.139-  30 1.95  62 1.96  67 1.97  53 2.19  52 2.20  51 2.20  78 2.89  23 2.94
                            17 2.95  79 2.96  80 3.24  75 3.25
  10  0.891  0.392  0.391-  59 1.98  64 1.98  27 1.98  68 2.16  31 2.16  60 2.16  21 2.88  24 2.93
                            80 2.93  75 2.94
  11  0.640  0.140  0.639-  56 1.96  36 1.96  73 1.97  58 2.19  59 2.19  57 2.20  80 2.89  18 2.94
                            25 2.96  22 2.96  78 3.24
  12  0.891  0.392  0.890-  70 1.97  33 1.97  53 1.98  74 2.16  37 2.16  54 2.17  20 2.87  26 2.94
                            78 2.95  19 2.95
  13  0.640  0.641  0.140-  42 1.97  55 1.97  74 1.97  64 2.18  65 2.18  63 2.18  25 2.92  22 2.92
                            24 2.93  20 2.93  76 3.26  78 3.27
  14  0.890  0.890  0.392-  71 1.96  39 1.97  52 1.98  56 2.17  72 2.18  43 2.19  18 2.89  26 2.92
                            78 2.93  76 2.94  79 3.27
  15  0.641  0.640  0.641-  61 1.97  68 1.97  48 1.98  70 2.17  71 2.17  69 2.17  26 2.89  23 2.92
                            79 2.93  21 2.95  80 3.26  77 3.27
  16  0.891  0.891  0.891-  65 1.97  58 1.98  45 1.98  62 2.16  49 2.16  66 2.17  17 2.88  77 2.92
                            80 2.93  24 2.94
  17  1.000  0.002  0.997-  33 1.81  52 1.84  41 1.84  49 2.01  62 2.01  66 2.05  16 2.88   3 2.92
                             9 2.95   5 2.97
  18  0.999  0.000  0.498-  27 1.82  47 1.83  58 1.83  43 2.00  56 2.01  72 2.03  14 2.89   1 2.93
                            11 2.94   7 2.96
  19  0.252  0.249  0.750-  36 1.81  38 1.82  37 1.83  34 2.01  35 2.04  33 2.04   3 2.92   8 2.93
                             2 2.94  12 2.95
  20  0.997  0.498  0.001-  64 1.82  29 1.83  45 1.84  54 2.00  74 2.02  37 2.03  12 2.87  13 2.93
                             1 2.94   7 2.96
  21  0.001  0.497  0.501-  35 1.81  70 1.82  39 1.84  60 2.01  31 2.02  68 2.05  10 2.88   3 2.92
                            15 2.95   5 2.96
  22  0.500  0.997  0.001-  65 1.81  28 1.83  57 1.84  42 2.00  73 2.03  38 2.03   8 2.89  13 2.92
                             1 2.96  11 2.96
  23  0.500  0.500  0.998-  69 1.82  53 1.83  40 1.84  61 2.01  50 2.01  30 2.03   4 2.88  15 2.92
                             9 2.94   5 2.94
  24  0.751  0.749  0.250-  68 1.81  66 1.81  67 1.83  64 2.03  65 2.04  63 2.04  13 2.93  10 2.93
                            16 2.94   6 2.96
  25  0.500  0.501  0.497-  63 1.81  59 1.84  46 1.84  55 2.00  44 2.01  36 2.04   2 2.89  13 2.92
                             7 2.94  11 2.96
  26  0.749  0.751  0.748-  72 1.82  73 1.82  74 1.83  71 2.01  70 2.03  69 2.03  15 2.89  14 2.92
                             8 2.94  12 2.94
  27  0.056  0.181  0.361-  18 1.82  10 1.98  75 2.01   1 2.20
  28  0.361  0.056  0.181-  22 1.83   6 1.97  75 2.01   1 2.21
  29  0.181  0.360  0.056-  20 1.83   4 1.99  75 2.00   1 2.20
  30  0.432  0.306  0.110-  75 1.84   9 1.95  23 2.03   4 2.17
  31  0.109  0.432  0.306-  75 1.84   5 1.96  21 2.02  10 2.16
  32  0.306  0.110  0.431-  75 1.85   3 1.97  79 2.00   6 2.18
  33  0.055  0.182  0.860-  17 1.81  12 1.97  19 2.04   3 2.17
  34  0.359  0.056  0.682-  79 1.84   8 1.96  19 2.01   3 2.17
  35  0.182  0.361  0.556-  21 1.81   2 1.97  19 2.04   3 2.18
  36  0.432  0.305  0.611-  19 1.81  11 1.96  25 2.04   2 2.18
  37  0.111  0.431  0.805-  19 1.83   7 1.96  20 2.03  12 2.16
  38  0.305  0.111  0.932-  19 1.82   1 1.96  22 2.03   8 2.18
  39  0.056  0.681  0.361-  21 1.84  14 1.97  76 2.00   5 2.19
  40  0.361  0.556  0.181-  23 1.84   2 1.98  76 2.00   5 2.19
  41  0.180  0.861  0.056-  17 1.84   8 1.98  76 2.00   5 2.20
  42  0.431  0.807  0.110-  76 1.85  13 1.97  22 2.00   8 2.17
  43  0.110  0.931  0.306-  76 1.85   1 1.96  18 2.00  14 2.19
  44  0.306  0.610  0.431-  76 1.85   7 1.96  25 2.01   2 2.17
  45  0.056  0.680  0.861-  20 1.84  16 1.98  77 2.00   7 2.20
  46  0.361  0.556  0.680-  25 1.84   4 1.98  77 2.00   7 2.19
  47  0.181  0.861  0.556-  18 1.83   6 1.97  77 2.01   7 2.20
  48  0.431  0.806  0.610-  77 1.86  15 1.98  79 1.99   6 2.18
  49  0.110  0.931  0.807-  77 1.84   3 1.97  17 2.01  16 2.16
  50  0.306  0.610  0.932-  77 1.84   5 1.96  23 2.01   4 2.16
  51  0.557  0.181  0.360-  79 1.86   2 1.97  78 1.99   9 2.20
  52  0.861  0.056  0.181-  17 1.84  14 1.98  78 2.00   9 2.20
  53  0.681  0.361  0.056-  23 1.83  12 1.98  78 2.00   9 2.19
  54  0.931  0.306  0.110-  78 1.86   1 1.96  20 2.00  12 2.17
  55  0.610  0.431  0.306-  78 1.85  13 1.97  25 2.00   2 2.17
  56  0.807  0.110  0.431-  78 1.85  11 1.96  18 2.01  14 2.17
  57  0.556  0.180  0.861-  22 1.84   4 1.98  80 2.01  11 2.20
  58  0.861  0.056  0.681-  18 1.83  16 1.98  80 2.01  11 2.19
  59  0.681  0.361  0.556-  25 1.84  10 1.98  80 2.00  11 2.19
  60  0.931  0.306  0.610-  80 1.85   3 1.97  21 2.01  10 2.16
  61  0.610  0.431  0.806-  80 1.84  15 1.97  23 2.01   4 2.16
  62  0.806  0.109  0.931-  80 1.85   9 1.96  17 2.01  16 2.16
  63  0.556  0.682  0.360-  25 1.81   6 1.96  24 2.04  13 2.18
  64  0.860  0.556  0.180-  20 1.82  10 1.98  24 2.03  13 2.18
  65  0.681  0.860  0.056-  22 1.81  16 1.97  24 2.04  13 2.18
  66  0.931  0.805  0.111-  24 1.81   5 1.96  17 2.05  16 2.17
  67  0.611  0.932  0.305-  24 1.83   9 1.97  79 2.01   6 2.19
  68  0.805  0.611  0.431-  24 1.81  15 1.97  21 2.05  10 2.16
  69  0.556  0.681  0.861-  23 1.82   8 1.97  26 2.03  15 2.17
  70  0.861  0.556  0.681-  21 1.82  12 1.97  26 2.03  15 2.17
  71  0.681  0.860  0.557-  79 1.85  14 1.96  26 2.01  15 2.17
  72  0.931  0.805  0.611-  26 1.82   7 1.96  18 2.03  14 2.18
  73  0.610  0.931  0.806-  26 1.82  11 1.97  22 2.03   8 2.17
  74  0.806  0.611  0.930-  26 1.83  13 1.97  20 2.02  12 2.16
  75  0.249  0.250  0.248-  30 1.84  31 1.84  32 1.85  29 2.00  28 2.01  27 2.01   1 2.92   4 2.93
                            10 2.94   6 2.95   5 3.23   9 3.25   3 3.27
  76  0.248  0.748  0.248-  43 1.85  44 1.85  42 1.85  40 2.00  39 2.00  41 2.00   5 2.89   2 2.94
                             8 2.94  14 2.94   7 3.25   1 3.25  13 3.26
  77  0.248  0.747  0.749-  50 1.84  49 1.84  48 1.86  45 2.00  46 2.00  47 2.01   7 2.89  16 2.92
                             4 2.93   6 2.94   5 3.25   3 3.27  15 3.27
  78  0.747  0.248  0.249-  56 1.85  55 1.85  54 1.86  51 1.99  53 2.00  52 2.00   9 2.89   2 2.92
                            14 2.93  12 2.95  11 3.24   1 3.25  13 3.27
  79  0.497  0.998  0.500-  34 1.84  71 1.85  51 1.86  48 1.99  32 2.00  67 2.01   6 2.87   3 2.92
                            15 2.93   9 2.96   8 3.25   2 3.26  14 3.27
  80  0.748  0.248  0.748-  61 1.84  60 1.85  62 1.85  59 2.00  58 2.01  57 2.01  11 2.89   4 2.93
                            10 2.93  16 2.93   9 3.24   3 3.26  15 3.26
 
  Warning from LATTYP: Got some problem with cell dimensions!
  Tried to take original basis but could not verify dimensions!
  LATTYP: Found a triclinic cell.
 ALAT       =    17.5469905288
 B/A-ratio  =     0.5647103122
 C/A-ratio  =     0.6016367188
 COS(alpha) =     0.0001983670
 COS(beta)  =     0.3367853441
 COS(gamma) =     0.8471333656
  
  Lattice vectors:
  
 A1 = (  -9.9104433774,  11.4417273144,  -8.8750698446)
 A2 = (  -4.9540318430,   8.5816772770,  -0.0008301593)
 A3 = (   4.9539028378,   2.8613494633,  -8.8724266715)


Analysis of symmetry for initial positions (statically):
=====================================================================
 Subroutine PRICEL returns:
 Original cell was already a primitive cell.
 

 Routine SETGRP: Setting up the symmetry group for a 
 triclinic supercell.


 Subroutine GETGRP returns: Found  1 space group operations
 (whereof  1 operations were pure point group operations)
 out of a pool of  2 trial point group operations.


The static configuration has the point symmetry C_1 .


Analysis of symmetry for dynamics (positions and initial velocities):
=====================================================================
 Subroutine PRICEL returns:
 Original cell was already a primitive cell.
 

 Routine SETGRP: Setting up the symmetry group for a 
 triclinic supercell.


 Subroutine GETGRP returns: Found  1 space group operations
 (whereof  1 operations were pure point group operations)
 out of a pool of  2 trial point group operations.


The dynamic configuration has the point symmetry C_1 .


 Subroutine INISYM returns: Found  1 space group operations
 (whereof  1 operations are pure point group operations),
 and found     1 'primitive' translations

 
 
 KPOINTS: Autom                                   

Automatic generation of k-mesh.
Space group operators:
 irot       det(A)        alpha          n_x          n_y          n_z        tau_x        tau_y        tau_z
    1     1.000000     0.000001     1.000000     0.000000     0.000000     0.000000     0.000000     0.000000
 
 Subroutine IBZKPT returns following result:
 ===========================================
 
 Found     36 irreducible k-points:
 
 Following reciprocal coordinates:
            Coordinates               Weight
  0.000000  0.000000  0.000000      1.000000
  0.250000 -0.000000 -0.000000      2.000000
  0.500000 -0.000000 -0.000000      1.000000
  0.000000  0.250000 -0.000000      2.000000
  0.250000  0.250000 -0.000000      2.000000
  0.500000  0.250000 -0.000000      2.000000
 -0.250000  0.250000 -0.000000      2.000000
  0.000000  0.500000 -0.000000      1.000000
  0.250000  0.500000 -0.000000      2.000000
  0.500000  0.500000 -0.000000      1.000000
  0.000000 -0.000000  0.250000      2.000000
  0.250000 -0.000000  0.250000      2.000000
  0.500000 -0.000000  0.250000      2.000000
 -0.250000 -0.000000  0.250000      2.000000
  0.000000  0.250000  0.250000      2.000000
  0.250000  0.250000  0.250000      2.000000
  0.500000  0.250000  0.250000      2.000000
 -0.250000  0.250000  0.250000      2.000000
  0.000000  0.500000  0.250000      2.000000
  0.250000  0.500000  0.250000      2.000000
  0.500000  0.500000  0.250000      2.000000
 -0.250000  0.500000  0.250000      2.000000
 -0.000000 -0.250000  0.250000      2.000000
  0.250000 -0.250000  0.250000      2.000000
  0.500000 -0.250000  0.250000      2.000000
 -0.250000 -0.250000  0.250000      2.000000
  0.000000 -0.000000  0.500000      1.000000
  0.250000 -0.000000  0.500000      2.000000
  0.500000 -0.000000  0.500000      1.000000
 -0.000000  0.250000  0.500000      2.000000
  0.250000  0.250000  0.500000      2.000000
  0.500000  0.250000  0.500000      2.000000
 -0.250000  0.250000  0.500000      2.000000
  0.000000  0.500000  0.500000      1.000000
  0.250000  0.500000  0.500000      2.000000
  0.500000  0.500000  0.500000      1.000000
 
 Following cartesian coordinates:
            Coordinates               Weight
  0.000000  0.000000  0.000000      1.000000
  0.024356 -0.014065  0.009063      2.000000
  0.048712 -0.028131  0.018126      1.000000
 -0.000005  0.028124  0.009067      2.000000
  0.024351  0.014059  0.018130      2.000000
  0.048706 -0.000007  0.027193      2.000000
 -0.024361  0.042190  0.000004      2.000000
 -0.000011  0.056249  0.018134      1.000000
  0.024345  0.042183  0.027197      2.000000
  0.048701  0.028118  0.036260      1.000000
 -0.024355 -0.014059  0.009072      2.000000
  0.000000 -0.028125  0.018135      2.000000
  0.024356 -0.042190  0.027198      2.000000
 -0.048711  0.000006  0.000009      2.000000
 -0.024361  0.014065  0.018139      2.000000
 -0.000005 -0.000000  0.027202      2.000000
  0.024351 -0.014066  0.036265      2.000000
 -0.048717  0.028131  0.009076      2.000000
 -0.024366  0.042189  0.027206      2.000000
 -0.000010  0.028124  0.036269      2.000000
  0.024346  0.014059  0.045332      2.000000
 -0.048722  0.056255  0.018143      2.000000
 -0.024350 -0.042183  0.000005      2.000000
  0.000006 -0.056249  0.009068      2.000000
  0.024362 -0.070314  0.018131      2.000000
 -0.048706 -0.028118 -0.009058      2.000000
 -0.048711 -0.028118  0.018144      1.000000
 -0.024355 -0.042184  0.027207      2.000000
  0.000001 -0.056249  0.036270      1.000000
 -0.048716  0.000006  0.027211      2.000000
 -0.024360 -0.014059  0.036274      2.000000
 -0.000005 -0.028125  0.045337      2.000000
 -0.073072  0.014072  0.018148      2.000000
 -0.048722  0.028130  0.036278      1.000000
 -0.024366  0.014065  0.045341      2.000000
 -0.000010 -0.000000  0.054404      1.000000
 
 TETIRR: Found    192 inequivalent tetrahedra from      384


--------------------------------------------------------------------------------------------------------




 Dimension of arrays:
   k-points           NKPTS =     36   k-points in BZ     NKDIM =     36   number of bands    NBANDS=    288
   number of dos      NEDOS =    301   number of ions     NIONS =     80
   non local maximal  LDIM  =      6   non local SUM 2l+1 LMDIM =     18
   total plane-waves  NPLWV = 512000
   max r-space proj   IRMAX =  15374   max aug-charges    IRDMAX=  46374
   dimension x,y,z NGX =    80 NGY =   80 NGZ =   80
   dimension x,y,z NGXF=   160 NGYF=  160 NGZF=  160
   support grid    NGXF=   160 NGYF=  160 NGZF=  160
   ions per type =              16  10  48   6
   NGX,Y,Z   is equivalent  to a cutoff of  12.60, 12.60, 12.60 a.u.
   NGXF,Y,Z  is equivalent  to a cutoff of  25.19, 25.19, 25.20 a.u.

 SYSTEM =  Li(NbTa)O_3                             
 POSCAR =  Li Nb  O Ta + -10 %                     

 Startparameter for this run:
   NWRITE =      0    write-flag & timer
   PREC   = accura    normal or accurate (medium, high low for compatibility)
   ISTART =      0    job   : 0-new  1-cont  2-samecut
   ICHARG =      2    charge: 1-file 2-atom 10-const
   ISPIN  =      1    spin polarized calculation?
   LNONCOLLINEAR =      F non collinear calculations
   LSORBIT =      F    spin-orbit coupling
   INIWAV =      1    electr: 0-lowe 1-rand  2-diag
   LASPH  =      F    aspherical Exc in radial PAW
   METAGGA=      F    non-selfconsistent MetaGGA calc.

 Electronic Relaxation 1
   ENCUT  =  475.0 eV  34.91 Ry    5.91 a.u.  18.76 18.76 18.76*2*pi/ulx,y,z
   ENINI  =  475.0     initial cutoff
   ENAUG  =  605.4 eV  augmentation charge cutoff
   NELM   =   1000;   NELMIN=  4; NELMDL= -5     # of ELM steps 
   EDIFF  = 0.1E-05   stopping-criterion for ELM
   LREAL  =      T    real-space projection
   NLSPLINE    = F    spline interpolate recip. space projectors
   LCOMPAT=      F    compatible to vasp.4.4
   GGA_COMPAT  = T    GGA compatible to vasp.4.4-vasp.4.6
   LMAXPAW     = -100 max onsite density
   LMAXMIX     =    2 max onsite mixed and CHGCAR
   VOSKOWN=      0    Vosko Wilk Nusair interpolation
   ROPT   =   -0.00025  -0.00025  -0.00025  -0.00025
 Ionic relaxation
   EDIFFG = -.5E-02   stopping-criterion for IOM
   NSW    =    200    number of steps for IOM
   NBLOCK =      1;   KBLOCK =    200    inner block; outer block 
   IBRION =      1    ionic relax: 0-MD 1-quasi-New 2-CG
   NFREE  =      0    steps in history (QN), initial steepest desc. (CG)
   ISIF   =      4    stress and relaxation
   IWAVPR =     11    prediction:  0-non 1-charg 2-wave 3-comb
   ISYM   =      2    0-nonsym 1-usesym 2-fastsym
   LCORR  =      T    Harris-Foulkes like correction to forces

   POTIM  = 0.1500    time-step for ionic-motion
   TEIN   =    0.0    initial temperature
   TEBEG  =    0.0;   TEEND  =   0.0 temperature during run
   SMASS  =  -3.00    Nose mass-parameter (am)
   estimated Nose-frequenzy (Omega)   =  0.10E-29 period in steps =****** mass=  -0.255E-26a.u.
   SCALEE = 1.0000    scale energy and forces
   NPACO  =    256;   APACO  = 16.0  distance and # of slots for P.C.
   PSTRESS=    0.0 pullay stress

  Mass of Ions in am
   POMASS =   7.01 92.91 16.00180.95
  Ionic Valenz
   ZVAL   =   1.00 13.00  6.00  5.00
  Atomic Wigner-Seitz radii
   RWIGS  =  -1.00 -1.00 -1.00 -1.00
  virtual crystal weights 
   VCA    =   1.00  1.00  1.00  1.00
   NELECT =     464.0000    total number of electrons
   NUPDOWN=      -1.0000    fix difference up-down

 DOS related values:
   EMIN   =  10.00;   EMAX   =-10.00  energy-range for DOS
   EFERMI =   0.00
   ISMEAR =    -5;   SIGMA  =   0.05  broadening in eV -4-tet -1-fermi 0-gaus

 Electronic relaxation 2 (details)
   IALGO  =     68    algorithm
   LDIAG  =      T    sub-space diagonalisation (order eigenvalues)
   LSUBROT=      F    optimize rotation matrix (better conditioning)
   TURBO    =      0    0=normal 1=particle mesh
   IRESTART =      0    0=no restart 2=restart with 2 vectors
   NREBOOT  =      0    no. of reboots
   NMIN     =      0    reboot dimension
   EREF     =   0.00    reference energy to select bands
   IMIX   =      4    mixing-type and parameters
     AMIX     =   0.40;   BMIX     =  1.00
     AMIX_MAG =   1.60;   BMIX_MAG =  1.00
     AMIN     =   0.10
     WC   =   100.;   INIMIX=   1;  MIXPRE=   1;  MAXMIX= -45

 Intra band minimization:
   WEIMIN = 0.0010     energy-eigenvalue tresh-hold
   EBREAK =  0.87E-09  absolut break condition
   DEPER  =   0.30     relativ break condition  

   TIME   =   0.40     timestep for ELM

  volume/ion in A,a.u.               =       9.43        63.66
  Fermi-wavevector in a.u.,A,eV,Ry     =   1.392047  2.630588 26.365311  1.937796
  Thomas-Fermi vector in A             =   2.515828
 
 Write flags
   LWAVE        =      F    write WAVECAR
   LDOWNSAMPLE  =      F    k-point downsampling of WAVECAR
   LCHARG       =      F    write CHGCAR
   LVTOT        =      F    write LOCPOT, total local potential
   LVHAR        =      F    write LOCPOT, Hartree potential only
   LELF         =      F    write electronic localiz. function (ELF)
   LORBIT       =      0    0 simple, 1 ext, 2 COOP (PROOUT), +10 PAW based schemes


 Dipole corrections
   LMONO  =      F    monopole corrections only (constant potential shift)
   LDIPOL =      F    correct potential (dipole corrections)
   IDIPOL =      0    1-x, 2-y, 3-z, 4-all directions 
   EPSILON=  1.0000000 bulk dielectric constant

 Exchange correlation treatment:
   GGA     =    PS    GGA type
   LEXCH   =    14    internal setting for exchange type
   VOSKOWN=      0    Vosko Wilk Nusair interpolation
   LHFCALC =     F    Hartree Fock is set to
   LHFONE  =     F    Hartree Fock one center treatment
   AEXX    =    0.0000 exact exchange contribution

 Linear response parameters
   LEPSILON=     F    determine dielectric tensor
   LRPA    =     F    only Hartree local field effects (RPA)
   LNABLA  =     F    use nabla operator in PAW spheres
   LVEL    =     F    velocity operator in full k-point grid
   LINTERFAST=   F  fast interpolation
   KINTER  =     0    interpolate to denser k-point grid
   CSHIFT  =0.1000    complex shift for real part using Kramers Kronig
   OMEGAMAX=  -1.0    maximum frequency
   DEG_THRESHOLD= 0.2000000E-02 threshold for treating states as degnerate
   RTIME   =   -0.100 relaxation time in fs
  (WPLASMAI=    0.000 imaginary part of plasma frequency in eV, 0.658/RTIME)
   DFIELD  = 0.0000000 0.0000000 0.0000000 field for delta impulse in time
 
 Orbital magnetization related:
   ORBITALMAG=     F  switch on orbital magnetization
   LCHIMAG   =     F  perturbation theory with respect to B field
   DQ        =  0.001000  dq finite difference perturbation B field
   LLRAUG    =     F  two centre corrections for induced B field



--------------------------------------------------------------------------------------------------------


 quasi-Newton-method for relaxation of ions
 charge density and potential will be updated during run
 non-spin polarized calculation
 RMM-DIIS sequential band-by-band and
  variant of blocked Davidson during initial phase
 perform sub-space diagonalisation
    before iterative eigenvector-optimisation
 modified Broyden-mixing scheme, WC =      100.0
 initial mixing is a Kerker type mixing with AMIX =  0.4000 and BMIX =      1.0000
 Hartree-type preconditioning will be used
 using additional bands           56
 real space projection scheme for non local part
 use partial core corrections
 calculate Harris-corrections to forces 
   (improved forces if not selfconsistent)
 use gradient corrections 
 use of overlap-Matrix (Vanderbilt PP)
 Fermi weights with tetrahedron method with Bloechl corrections


--------------------------------------------------------------------------------------------------------


  energy-cutoff  :      475.00
  volume of cell :      754.71
      direct lattice vectors                 reciprocal lattice vectors
     4.956411534 -2.860050037  8.874239685     0.100905744 -0.058272823  0.037547602
     0.002379691  5.721627240  8.873409526    -0.000022150  0.116518184  0.037564640
    -4.953902838 -2.861349463  8.872426671    -0.100904211 -0.058246361  0.037584661

  length of vectors
    10.559262830 10.558144749 10.556913807     0.122423501  0.122423813  0.122421016


 
 k-points in units of 2pi/SCALE and weight: Autom                                   
   0.00000000  0.00000000  0.00000000       0.016
   0.02435586 -0.01406545  0.00906295       0.031
   0.04871171 -0.02813090  0.01812591       0.016
  -0.00000535  0.02812427  0.00906707       0.031
   0.02435051  0.01405882  0.01813002       0.031
   0.04870637 -0.00000663  0.02719297       0.031
  -0.02436120  0.04218972  0.00000411       0.031
  -0.00001069  0.05624853  0.01813413       0.016
   0.02434516  0.04218309  0.02719708       0.031
   0.04870102  0.02811764  0.03626004       0.016
  -0.02435549 -0.01405906  0.00907190       0.031
   0.00000037 -0.02812451  0.01813485       0.031
   0.02435623 -0.04218996  0.02719780       0.031
  -0.04871134  0.00000639  0.00000895       0.031
  -0.02436083  0.01406521  0.01813896       0.031
  -0.00000498 -0.00000024  0.02720192       0.031
   0.02435088 -0.01406569  0.03626487       0.031
  -0.04871669  0.02813065  0.00907601       0.031
  -0.02436618  0.04218947  0.02720603       0.031
  -0.00001032  0.02812403  0.03626898       0.031
   0.02434553  0.01405858  0.04533193       0.031
  -0.04872204  0.05625492  0.01814308       0.031
  -0.02435014 -0.04218333  0.00000483       0.031
   0.00000572 -0.05624878  0.00906779       0.031
   0.02436157 -0.07031422  0.01813074       0.031
  -0.04870600 -0.02811788 -0.00905812       0.031
  -0.04871097 -0.02811812  0.01814380       0.016
  -0.02435512 -0.04218357  0.02720675       0.031
   0.00000074 -0.05624902  0.03626970       0.016
  -0.04871632  0.00000615  0.02721086       0.031
  -0.02436046 -0.01405930  0.03627381       0.031
  -0.00000461 -0.02812475  0.04533677       0.031
  -0.07307217  0.01407159  0.01814791       0.031
  -0.04872167  0.02813041  0.03627793       0.016
  -0.02436581  0.01406497  0.04534088       0.031
  -0.00000995 -0.00000048  0.05440383       0.016
 
 k-points in reciprocal lattice and weights: Autom                                   
   0.00000000  0.00000000  0.00000000       0.016
   0.25000000 -0.00000000 -0.00000000       0.031
   0.50000000 -0.00000000 -0.00000000       0.016
   0.00000000  0.25000000 -0.00000000       0.031
   0.25000000  0.25000000 -0.00000000       0.031
   0.50000000  0.25000000 -0.00000000       0.031
  -0.25000000  0.25000000 -0.00000000       0.031
   0.00000000  0.50000000 -0.00000000       0.016
   0.25000000  0.50000000 -0.00000000       0.031
   0.50000000  0.50000000 -0.00000000       0.016
   0.00000000 -0.00000000  0.25000000       0.031
   0.25000000 -0.00000000  0.25000000       0.031
   0.50000000 -0.00000000  0.25000000       0.031
  -0.25000000 -0.00000000  0.25000000       0.031
   0.00000000  0.25000000  0.25000000       0.031
   0.25000000  0.25000000  0.25000000       0.031
   0.50000000  0.25000000  0.25000000       0.031
  -0.25000000  0.25000000  0.25000000       0.031
   0.00000000  0.50000000  0.25000000       0.031
   0.25000000  0.50000000  0.25000000       0.031
   0.50000000  0.50000000  0.25000000       0.031
  -0.25000000  0.50000000  0.25000000       0.031
  -0.00000000 -0.25000000  0.25000000       0.031
   0.25000000 -0.25000000  0.25000000       0.031
   0.50000000 -0.25000000  0.25000000       0.031
  -0.25000000 -0.25000000  0.25000000       0.031
   0.00000000 -0.00000000  0.50000000       0.016
   0.25000000 -0.00000000  0.50000000       0.031
   0.50000000 -0.00000000  0.50000000       0.016
  -0.00000000  0.25000000  0.50000000       0.031
   0.25000000  0.25000000  0.50000000       0.031
   0.50000000  0.25000000  0.50000000       0.031
  -0.25000000  0.25000000  0.50000000       0.031
   0.00000000  0.50000000  0.50000000       0.016
   0.25000000  0.50000000  0.50000000       0.031
   0.50000000  0.50000000  0.50000000       0.016
 
 position of ions in fractional coordinates (direct lattice) 
   0.13834752  0.13936271  0.13984335
   0.39146324  0.38999630  0.39085144
   0.14028321  0.14032414  0.64092124
   0.39173469  0.39088444  0.89059988
   0.14005761  0.63914415  0.13990376
   0.38998511  0.89022976  0.39046082
   0.14027342  0.63856692  0.63942290
   0.39066873  0.89122478  0.89017412
   0.63968950  0.14081636  0.13851063
   0.89081879  0.39199278  0.39127564
   0.64044608  0.13979598  0.63895884
   0.89104424  0.39188824  0.88993991
   0.63987068  0.64050964  0.14005521
   0.88952244  0.89019616  0.39154151
   0.64095434  0.64008558  0.64144699
   0.89103108  0.89076076  0.89134632
   0.99959237  0.00150112  0.99675172
   0.99938324  0.00003493  0.49763958
   0.25168038  0.24891337  0.74959517
   0.99749990  0.49794372  0.00086033
   0.00052440  0.49715140  0.50088067
   0.49988249  0.99738472  0.00090131
   0.49954620  0.50003968  0.99785757
   0.75097315  0.74942469  0.24984287
   0.49985523  0.50129758  0.49655071
   0.74940214  0.75095878  0.74802348
   0.05623360  0.18120304  0.36059596
   0.36055215  0.05618073  0.18135900
   0.18067803  0.36043515  0.05635112
   0.43164615  0.30579781  0.11007695
   0.10933811  0.43208088  0.30572184
   0.30616879  0.11038237  0.43144631
   0.05540035  0.18155956  0.86034038
   0.35943918  0.05639020  0.68203455
   0.18159346  0.36067916  0.55556672
   0.43176800  0.30520898  0.61104129
   0.11066152  0.43074915  0.80539644
   0.30515946  0.11079423  0.93190663
   0.05604537  0.68076856  0.36081137
   0.36061507  0.55618152  0.18081868
   0.18040413  0.86090372  0.05629587
   0.43096027  0.80670950  0.10983535
   0.11018018  0.93120277  0.30647725
   0.30631393  0.60963452  0.43142758
   0.05642617  0.67983109  0.86072292
   0.36082901  0.55621291  0.68039936
   0.18050111  0.86073339  0.55625759
   0.43105925  0.80638098  0.60992686
   0.10974163  0.93076687  0.80662904
   0.30592914  0.60973059  0.93157562
   0.55668960  0.18089021  0.36049958
   0.86099568  0.05588109  0.18065345
   0.68094161  0.36072792  0.05606070
   0.93094987  0.30643726  0.10970186
   0.61015919  0.43137998  0.30635721
   0.80662739  0.10979363  0.43135599
   0.55625493  0.18016866  0.86082204
   0.86060460  0.05601788  0.68054061
   0.68056339  0.36084158  0.55626059
   0.93128773  0.30623948  0.60979445
   0.61008613  0.43101265  0.80636497
   0.80623116  0.10929440  0.93147945
   0.55554077  0.68183433  0.36007734
   0.86007458  0.55634829  0.18046819
   0.68107200  0.86046774  0.05575260
   0.93136114  0.80492582  0.11095065
   0.61067752  0.93165297  0.30547765
   0.80503784  0.61074302  0.43111591
   0.55556968  0.68082022  0.86090541
   0.86059508  0.55581627  0.68050717
   0.68097931  0.85972506  0.55655493
   0.93138973  0.80539064  0.61084254
   0.61024363  0.93134011  0.80571432
   0.80584636  0.61083297  0.93009391
   0.24862253  0.24992729  0.24762435
   0.24806756  0.74806531  0.24849505
   0.24752603  0.74745881  0.74934160
   0.74730972  0.24776208  0.24918815
   0.49682629  0.99767190  0.50015434
   0.74834988  0.24827406  0.74832874
 
 position of ions in cartesian coordinates  (Angst):
  -0.00673147  0.00155998  3.70510134
   0.00494094 -0.00655353 10.40233625
  -2.47942632 -1.43223421  8.17658717
  -2.46941674 -1.43220327 14.84660738
   0.00263451  2.85605927  8.15557840
   0.00074023  2.86094109 14.82452956
  -2.47086652  1.42284051 12.58431861
  -2.47140028  1.43482461 19.27309499
   2.48473134 -1.42017257  8.15520465
   2.47785583 -1.42452608 14.85521634
   0.00930696 -2.86013188 12.59305448
   0.00863868 -2.85262177 19.28065162
   2.47916676  1.43394834 12.60449966
   2.47129907  1.42895480 19.26683383
   0.00069065 -0.00623436 17.05891532
   0.00279338 -0.00224574 23.71971329
   0.01658355 -5.70235039 17.72754891
   2.48809660 -4.28200699 13.28434705
  -2.46539779 -1.44048266 11.09291046
   4.94094293 -0.00631298 13.27814494
  -2.47753196  1.40982057  8.86010857
   2.47553181  4.27439570 13.29427686
  -2.46614295 -1.42290572 17.72356769
   2.48621812  1.42522017 15.53098048
   0.01881717  0.01782179 13.28966361
   0.01049684  0.01302202 19.95072242
  -1.50720925 -0.15584569  5.30628046
   0.88874366 -1.22868349  5.30723527
   0.61721444  1.38428713  5.30164002
   1.59483318  0.20016290  7.52065027
  -0.97156342  1.28471627  7.51681780
  -0.61958190 -1.47860993  7.52445902
  -3.98702366 -1.58136617  9.73599524
  -1.59707024 -2.65690955  9.74142424
  -1.85131336 -0.04536519  9.74118283
  -0.88629296 -1.23698876 11.96127598
  -3.44034667 -0.15643211 11.95007128
  -3.10381537 -2.90535858 11.95945410
  -1.50802052  2.70240398  9.73937064
   0.89292204  1.63350075  9.73971138
   0.61732149  4.24872317  9.73958175
   1.59382253  3.06884580 11.95721467
  -0.96994419  4.13593577 11.95990574
  -0.61758171  1.37756323 11.95564953
  -3.98264863  1.26552937 14.16986003
  -1.58089166  0.20359361 14.17438147
  -1.85895996  2.81690603 14.17480465
  -0.88309242  1.63574649 16.39220308
  -3.44982229  2.70358692 16.38970619
  -3.09717340 -0.05188492 16.39061415
   0.97373332 -1.58868907  9.74381596
   3.37264223 -2.65967264  9.73937233
   3.09816602 -0.04398563  9.74112007
   4.07144752 -1.22313883 11.95393728
   1.50756270 -0.15348538 11.96064205
   1.86134292 -2.91305668 11.95962301
  -1.50697163 -3.02317171 14.17263031
   0.89431181 -4.08812330 14.17232766
   0.61835004 -1.47350031 14.17675903
   1.59571155 -2.65617638 16.39221545
  -0.96979010 -1.58607512 16.39301642
  -0.61818517 -4.34580788 16.38898565
   0.97132308  1.28202035 14.17495696
   3.37018563  0.20697865 14.17040501
   3.10152780  2.81584802 14.17393966
   4.06848585  1.62427743 16.39195995
   1.51567956  2.70992440 16.39656510
   1.85584590 -0.04157786 16.38851601
  -1.50958964 -0.15690879 18.60977535
   0.89561967 -1.22834032 18.60686230
   0.62014052  1.37889326 18.60985888
   1.59221280  0.19648980 20.83159239
  -0.96459557  1.27802341 20.82825172
  -0.61203505 -1.47112608 20.82363481
   0.00616335  0.01037811  6.62107197
   0.00028475  2.85963405 11.04405487
  -2.48354590  1.42461563 15.47759184
   2.47011024 -1.43275534 11.04120354
  -0.01286630  2.85624231 17.69928959
   0.00257297 -2.86101651 15.48356549
 


--------------------------------------------------------------------------------------------------------


 k-point  1 :   0.0000 0.0000 0.0000  plane waves:   17749
 k-point  2 :   0.2500-0.0000-0.0000  plane waves:   17747
 k-point  3 :   0.5000-0.0000-0.0000  plane waves:   17722
 k-point  4 :   0.0000 0.2500-0.0000  plane waves:   17746
 k-point  5 :   0.2500 0.2500-0.0000  plane waves:   17739
 k-point  6 :   0.5000 0.2500-0.0000  plane waves:   17739
 k-point  7 :  -0.2500 0.2500-0.0000  plane waves:   17731
 k-point  8 :   0.0000 0.5000-0.0000  plane waves:   17722
 k-point  9 :   0.2500 0.5000-0.0000  plane waves:   17740
 k-point 10 :   0.5000 0.5000-0.0000  plane waves:   17728
 k-point 11 :   0.0000-0.0000 0.2500  plane waves:   17744
 k-point 12 :   0.2500-0.0000 0.2500  plane waves:   17737
 k-point 13 :   0.5000-0.0000 0.2500  plane waves:   17729
 k-point 14 :  -0.2500-0.0000 0.2500  plane waves:   17736
 k-point 15 :   0.0000 0.2500 0.2500  plane waves:   17739
 k-point 16 :   0.2500 0.2500 0.2500  plane waves:   17760
 k-point 17 :   0.5000 0.2500 0.2500  plane waves:   17751
 k-point 18 :  -0.2500 0.2500 0.2500  plane waves:   17710
 k-point 19 :   0.0000 0.5000 0.2500  plane waves:   17731
 k-point 20 :   0.2500 0.5000 0.2500  plane waves:   17751
 k-point 21 :   0.5000 0.5000 0.2500  plane waves:   17748
 k-point 22 :  -0.2500 0.5000 0.2500  plane waves:   17743
 k-point 23 :  -0.0000-0.2500 0.2500  plane waves:   17738
 k-point 24 :   0.2500-0.2500 0.2500  plane waves:   17710
 k-point 25 :   0.5000-0.2500 0.2500  plane waves:   17738
 k-point 26 :  -0.2500-0.2500 0.2500  plane waves:   17710
 k-point 27 :   0.0000-0.0000 0.5000  plane waves:   17722
 k-point 28 :   0.2500-0.0000 0.5000  plane waves:   17736
 k-point 29 :   0.5000-0.0000 0.5000  plane waves:   17726
 k-point 30 :  -0.0000 0.2500 0.5000  plane waves:   17739
 k-point 31 :   0.2500 0.2500 0.5000  plane waves:   17750
 k-point 32 :   0.5000 0.2500 0.5000  plane waves:   17750
 k-point 33 :  -0.2500 0.2500 0.5000  plane waves:   17740
 k-point 34 :   0.0000 0.5000 0.5000  plane waves:   17722
 k-point 35 :   0.2500 0.5000 0.5000  plane waves:   17749
 k-point 36 :   0.5000 0.5000 0.5000  plane waves:   17804

 maximum and minimum number of plane-waves per node :     17804    17710

 maximum number of plane-waves:     17804
 maximum index in each direction: 
   IXMAX=   19   IYMAX=   19   IZMAX=   18
   IXMIN=  -19   IYMIN=  -19   IZMIN=  -19


 serial   3D FFT for wavefunctions
 parallel 3D FFT for charge:
    minimum data exchange during FFTs selected (reduces bandwidth)


 total amount of memory used by VASP MPI-rank0   181074. kBytes
=======================================================================

   base      :      30000. kBytes
   nonlr-proj:      76126. kBytes
   fftplans  :       4575. kBytes
   grid      :      26165. kBytes
   one-center:       1244. kBytes
   wavefun   :      42964. kBytes
 
     INWAV:  cpu time    0.0000: real time    0.0000
 Broyden mixing: mesh for mixing (old mesh)
   NGX = 37   NGY = 37   NGZ = 37
  (NGX  =160   NGY  =160   NGZ  =160)
  gives a total of  50653 points

 initial charge density was supplied:
 charge density of overlapping atoms calculated
 number of electron     464.0000000 magnetization 
 keeping initial charge density in first step


--------------------------------------------------------------------------------------------------------


 Maximum index for non-local projection operator        14866
 Maximum index for augmentation-charges         1441 (set IRDMAX)


--------------------------------------------------------------------------------------------------------


 First call to EWALD:  gamma=   0.195
 Maximum number of real-space cells 3x 3x 3
 Maximum number of reciprocal cells 3x 3x 3

    FEWALD:  cpu time    0.0029: real time    0.0029


--------------------------------------- Iteration      1(   1)  ---------------------------------------


    POTLOK:  cpu time    0.0860: real time    0.0940
    SETDIJ:  cpu time    0.0132: real time    0.0132
     EDDAV:  cpu time   27.4065: real time   27.4028
 BZINTS: Fermi energy: 20.890388;464.000000 electrons
         Band energy: 644.975916;  BLOECHL correction: -0.039943
       DOS:  cpu time    0.0635: real time    0.0635
    --------------------------------------------
      LOOP:  cpu time   27.5691: real time   27.5734

 eigenvalue-minimisations  : 20736
 total energy-change (2. order) : 0.3747742E+04  (-0.2496357E+05)
 number of electron     464.0000000 magnetization 
 augmentation part      464.0000000 magnetization 

 Free energy of the ion-electron system (eV)
  ---------------------------------------------------
  alpha Z        PSCENC =      1823.26673663
  Ewald energy   TEWEN  =    -27757.02283481
  -Hartree energ DENC   =    -10183.43522287
  -exchange      EXHF   =         0.00000000
  -V(xc)+E(xc)   XCENC  =      1483.58639893
  PAW double counting   =     30201.20122080   -29545.67637776
  entropy T*S    EENTRO =         0.00000000
  eigenvalues    EBANDS =       644.97591579
  atomic energy  EATOM  =     37080.84622879
  Solvation  Ediel_sol  =         0.00000000
  ---------------------------------------------------
  free energy    TOTEN  =      3747.74206550 eV

  energy without entropy =     3747.74206550  energy(sigma->0) =     3747.74206550


--------------------------------------------------------------------------------------------------------




--------------------------------------- Iteration      1(   2)  ---------------------------------------


     EDDAV:  cpu time   40.6276: real time   40.6354
 BZINTS: Fermi energy:  2.210790;464.000000 electrons
         Band energy:***********;  BLOECHL correction:  0.000000
       DOS:  cpu time    0.0124: real time    0.0124
    --------------------------------------------
      LOOP:  cpu time   40.6400: real time   40.6477

 eigenvalue-minimisations  : 31032
 total energy-change (2. order) :-0.4296640E+04  (-0.4232685E+04)
 number of electron     464.0000000 magnetization 
 augmentation part      464.0000000 magnetization 

 Free energy of the ion-electron system (eV)
  ---------------------------------------------------
  alpha Z        PSCENC =      1823.26673663
  Ewald energy   TEWEN  =    -27757.02283481
  -Hartree energ DENC   =    -10183.43522287
  -exchange      EXHF   =         0.00000000
  -V(xc)+E(xc)   XCENC  =      1483.58639893
  PAW double counting   =     30201.20122080   -29545.67637776
  entropy T*S    EENTRO =         0.00000000
  eigenvalues    EBANDS =     -3651.66389100
  atomic energy  EATOM  =     37080.84622879
  Solvation  Ediel_sol  =         0.00000000
  ---------------------------------------------------
  free energy    TOTEN  =      -548.89774128 eV

  energy without entropy =     -548.89774128  energy(sigma->0) =     -548.89774128


--------------------------------------------------------------------------------------------------------




--------------------------------------- Iteration      1(   3)  ---------------------------------------


     EDDAV:  cpu time   40.8337: real time   40.8406
 BZINTS: Fermi energy:  1.111596;464.000000 electrons
         Band energy:***********;  BLOECHL correction:  0.000000
       DOS:  cpu time    0.0093: real time    0.0093
    --------------------------------------------
      LOOP:  cpu time   40.8430: real time   40.8499

 eigenvalue-minimisations  : 31248
 total energy-change (2. order) :-0.2371071E+03  (-0.2363299E+03)
 number of electron     464.0000000 magnetization 
 augmentation part      464.0000000 magnetization 

 Free energy of the ion-electron system (eV)
  ---------------------------------------------------
  alpha Z        PSCENC =      1823.26673663
  Ewald energy   TEWEN  =    -27757.02283481
  -Hartree energ DENC   =    -10183.43522287
  -exchange      EXHF   =         0.00000000
  -V(xc)+E(xc)   XCENC  =      1483.58639893
  PAW double counting   =     30201.20122080   -29545.67637776
  entropy T*S    EENTRO =         0.00000000
  eigenvalues    EBANDS =     -3888.77103389
  atomic energy  EATOM  =     37080.84622879
  Solvation  Ediel_sol  =         0.00000000
  ---------------------------------------------------
  free energy    TOTEN  =      -786.00488418 eV

  energy without entropy =     -786.00488418  energy(sigma->0) =     -786.00488418


--------------------------------------------------------------------------------------------------------




--------------------------------------- Iteration      1(   4)  ---------------------------------------


     EDDAV:  cpu time   47.3079: real time   47.3153
 BZINTS: Fermi energy:  1.104988;464.000000 electrons
         Band energy:***********;  BLOECHL correction:  0.000000
       DOS:  cpu time    0.0095: real time    0.0095
    --------------------------------------------
      LOOP:  cpu time   47.3174: real time   47.3248

 eigenvalue-minimisations  : 36144
 total energy-change (2. order) :-0.1073265E+02  (-0.1072527E+02)
 number of electron     464.0000000 magnetization 
 augmentation part      464.0000000 magnetization 

 Free energy of the ion-electron system (eV)
  ---------------------------------------------------
  alpha Z        PSCENC =      1823.26673663
  Ewald energy   TEWEN  =    -27757.02283481
  -Hartree energ DENC   =    -10183.43522287
  -exchange      EXHF   =         0.00000000
  -V(xc)+E(xc)   XCENC  =      1483.58639893
  PAW double counting   =     30201.20122080   -29545.67637776
  entropy T*S    EENTRO =         0.00000000
  eigenvalues    EBANDS =     -3899.50368478
  atomic energy  EATOM  =     37080.84622879
  Solvation  Ediel_sol  =         0.00000000
  ---------------------------------------------------
  free energy    TOTEN  =      -796.73753507 eV

  energy without entropy =     -796.73753507  energy(sigma->0) =     -796.73753507


--------------------------------------------------------------------------------------------------------




--------------------------------------- Iteration      1(   5)  ---------------------------------------


     EDDAV:  cpu time   42.5366: real time   42.5455
 BZINTS: Fermi energy:  1.036699;464.000000 electrons
         Band energy:***********;  BLOECHL correction:  0.000000
       DOS:  cpu time    0.0096: real time    0.0096
    CHARGE:  cpu time    0.9841: real time    0.9840
    MIXING:  cpu time    0.0013: real time    0.0013
    --------------------------------------------
      LOOP:  cpu time   43.5316: real time   43.5404

 eigenvalue-minimisations  : 32832
 total energy-change (2. order) :-0.1751130E+00  (-0.1751099E+00)
 number of electron     464.0000055 magnetization 
 augmentation part       52.1066810 magnetization 

 Broyden mixing:
  rms(total) = 0.12666E+02    rms(broyden)= 0.12666E+02
  rms(prec ) = 0.14284E+02
  weight for this iteration     100.00

 Free energy of the ion-electron system (eV)
  ---------------------------------------------------
  alpha Z        PSCENC =      1823.26673663
  Ewald energy   TEWEN  =    -27757.02283481
  -Hartree energ DENC   =    -10183.43522287
  -exchange      EXHF   =         0.00000000
  -V(xc)+E(xc)   XCENC  =      1483.58639893
  PAW double counting   =     30201.20122080   -29545.67637776
  entropy T*S    EENTRO =         0.00000000
  eigenvalues    EBANDS =     -3899.67879782
  atomic energy  EATOM  =     37080.84622879
  Solvation  Ediel_sol  =         0.00000000
  ---------------------------------------------------
  free energy    TOTEN  =      -796.91264811 eV

  energy without entropy =     -796.91264811  energy(sigma->0) =     -796.91264811


--------------------------------------------------------------------------------------------------------




--------------------------------------- Iteration      1(   6)  ---------------------------------------


    POTLOK:  cpu time    0.0483: real time    0.0654
    SETDIJ:  cpu time    0.0105: real time    0.0108
    EDDIAG:  cpu time    3.9034: real time    3.9028
  RMM-DIIS:  cpu time   13.5449: real time   13.5433
    ORTHCH:  cpu time    0.5332: real time    0.5331
 BZINTS: Fermi energy:  4.092863;464.000000 electrons
         Band energy:***********;  BLOECHL correction:  0.000000
       DOS:  cpu time    0.0087: real time    0.0087
    CHARGE:  cpu time    0.9790: real time    0.9788
    MIXING:  cpu time    0.0012: real time    0.0013
    --------------------------------------------
      LOOP:  cpu time   19.0294: real time   19.0443

 eigenvalue-minimisations  : 22838
 total energy-change (2. order) : 0.1154714E+03  (-0.6153796E+02)
 number of electron     464.0000044 magnetization 
 augmentation part       45.5960205 magnetization 

 Broyden mixing:
  rms(total) = 0.63794E+01    rms(broyden)= 0.63785E+01
  rms(prec ) = 0.64765E+01
  weight for this iteration     100.00

 eigenvalues of (default mixing * dielectric matrix)
  average eigenvalue GAMMA=   1.2694
  1.2694

 Free energy of the ion-electron system (eV)
  ---------------------------------------------------
  alpha Z        PSCENC =      1823.26673663
  Ewald energy   TEWEN  =    -27757.02283481
  -Hartree energ DENC   =    -10697.54260183
  -exchange      EXHF   =         0.00000000
  -V(xc)+E(xc)   XCENC  =      1537.84423913
  PAW double counting   =     38351.50276993   -37726.29783112
  entropy T*S    EENTRO =         0.00000000
  eigenvalues    EBANDS =     -3294.03794394
  atomic energy  EATOM  =     37080.84622879
  Solvation  Ediel_sol  =         0.00000000
  ---------------------------------------------------
  free energy    TOTEN  =      -681.44123721 eV

  energy without entropy =     -681.44123721  energy(sigma->0) =     -681.44123721


--------------------------------------------------------------------------------------------------------




--------------------------------------- Iteration      1(   7)  ---------------------------------------


    POTLOK:  cpu time    0.0471: real time    0.0579
    SETDIJ:  cpu time    0.0104: real time    0.0106
    EDDIAG:  cpu time    3.9523: real time    3.9519
  RMM-DIIS:  cpu time   15.6534: real time   15.6513
    ORTHCH:  cpu time    0.5299: real time    0.5298
 BZINTS: Fermi energy:  3.940868;464.000000 electrons
         Band energy:***********;  BLOECHL correction:  0.000000
       DOS:  cpu time    0.0101: real time    0.0101
    CHARGE:  cpu time    0.9791: real time    0.9789
    MIXING:  cpu time    0.0013: real time    0.0013
    --------------------------------------------
      LOOP:  cpu time   21.1835: real time   21.1918

 eigenvalue-minimisations  : 22974
 total energy-change (2. order) : 0.8455449E+01  (-0.2988431E+01)
 number of electron     464.0000044 magnetization 
 augmentation part       45.7137348 magnetization 

 Broyden mixing:
  rms(total) = 0.25503E+01    rms(broyden)= 0.25502E+01
  rms(prec ) = 0.26240E+01
  weight for this iteration     100.00

 eigenvalues of (default mixing * dielectric matrix)
  average eigenvalue GAMMA=   1.1868
  0.8130  1.5606

 Free energy of the ion-electron system (eV)
  ---------------------------------------------------
  alpha Z        PSCENC =      1823.26673663
  Ewald energy   TEWEN  =    -27757.02283481
  -Hartree energ DENC   =    -10614.39576868
  -exchange      EXHF   =         0.00000000
  -V(xc)+E(xc)   XCENC  =      1533.13852151
  PAW double counting   =     47118.04328902   -46481.21834963
  entropy T*S    EENTRO =         0.00000000
  eigenvalues    EBANDS =     -3375.64361129
  atomic energy  EATOM  =     37080.84622879
  Solvation  Ediel_sol  =         0.00000000
  ---------------------------------------------------
  free energy    TOTEN  =      -672.98578846 eV

  energy without entropy =     -672.98578846  energy(sigma->0) =     -672.98578846


--------------------------------------------------------------------------------------------------------




--------------------------------------- Iteration      1(   8)  ---------------------------------------


    POTLOK:  cpu time    0.0472: real time    0.0602
    SETDIJ:  cpu time    0.0104: real time    0.0106
    EDDIAG:  cpu time    3.9368: real time    3.9365
  RMM-DIIS:  cpu time   17.0514: real time   17.0498
    ORTHCH:  cpu time    0.5319: real time    0.5319
 BZINTS: Fermi energy:  3.745868;464.000000 electrons
         Band energy:***********;  BLOECHL correction:  0.000000
       DOS:  cpu time    0.0086: real time    0.0086
    CHARGE:  cpu time    0.9792: real time    0.9790
    MIXING:  cpu time    0.0012: real time    0.0012
    --------------------------------------------
      LOOP:  cpu time   22.5666: real time   22.5776

 eigenvalue-minimisations  : 26696
 total energy-change (2. order) : 0.1342222E+00  (-0.8328235E+00)
 number of electron     464.0000044 magnetization 
 augmentation part       45.6725850 magnetization 

 Broyden mixing:
  rms(total) = 0.11384E+01    rms(broyden)= 0.11384E+01
  rms(prec ) = 0.11756E+01
  weight for this iteration     100.00

 eigenvalues of (default mixing * dielectric matrix)
  average eigenvalue GAMMA=   1.4051
  1.0135  1.0135  2.1881

 Free energy of the ion-electron system (eV)
  ---------------------------------------------------
  alpha Z        PSCENC =      1823.26673663
  Ewald energy   TEWEN  =    -27757.02283481
  -Hartree energ DENC   =    -10597.73528908
  -exchange      EXHF   =         0.00000000
  -V(xc)+E(xc)   XCENC  =      1531.97437495
  PAW double counting   =     50172.35160957   -49523.39482147
  entropy T*S    EENTRO =         0.00000000
  eigenvalues    EBANDS =     -3403.13757089
  atomic energy  EATOM  =     37080.84622879
  Solvation  Ediel_sol  =         0.00000000
  ---------------------------------------------------
  free energy    TOTEN  =      -672.85156630 eV

  energy without entropy =     -672.85156630  energy(sigma->0) =     -672.85156630


--------------------------------------------------------------------------------------------------------




--------------------------------------- Iteration      1(   9)  ---------------------------------------


    POTLOK:  cpu time    0.0504: real time    0.0570
    SETDIJ:  cpu time    0.0102: real time    0.0102
    EDDIAG:  cpu time    3.9315: real time    3.9311
  RMM-DIIS:  cpu time   18.7568: real time   18.7541
    ORTHCH:  cpu time    0.5362: real time    0.5362
 BZINTS: Fermi energy:  3.772670;464.000000 electrons
         Band energy:***********;  BLOECHL correction:  0.000000
       DOS:  cpu time    0.0086: real time    0.0086
    CHARGE:  cpu time    0.9785: real time    0.9783
    MIXING:  cpu time    0.0013: real time    0.0013
    --------------------------------------------
      LOOP:  cpu time   24.2735: real time   24.2768

 eigenvalue-minimisations  : 32070
 total energy-change (2. order) : 0.5668517E-01  (-0.1297972E+00)
 number of electron     464.0000044 magnetization 
 augmentation part       45.4203098 magnetization 

 Broyden mixing:
  rms(total) = 0.28153E+00    rms(broyden)= 0.28151E+00
  rms(prec ) = 0.29746E+00
  weight for this iteration     100.00

 eigenvalues of (default mixing * dielectric matrix)
  average eigenvalue GAMMA=   1.4594
  2.4195  1.5058  0.9561  0.9561

 Free energy of the ion-electron system (eV)
  ---------------------------------------------------
  alpha Z        PSCENC =      1823.26673663
  Ewald energy   TEWEN  =    -27757.02283481
  -Hartree energ DENC   =    -10634.77178884
  -exchange      EXHF   =         0.00000000
  -V(xc)+E(xc)   XCENC  =      1534.61236413
  PAW double counting   =     52569.17501229   -51906.96134343
  entropy T*S    EENTRO =         0.00000000
  eigenvalues    EBANDS =     -3381.93925590
  atomic energy  EATOM  =     37080.84622879
  Solvation  Ediel_sol  =         0.00000000
  ---------------------------------------------------
  free energy    TOTEN  =      -672.79488113 eV

  energy without entropy =     -672.79488113  energy(sigma->0) =     -672.79488113


--------------------------------------------------------------------------------------------------------




--------------------------------------- Iteration      1(  10)  ---------------------------------------


    POTLOK:  cpu time    0.0478: real time    0.0655
    SETDIJ:  cpu time    0.0103: real time    0.0105
    EDDIAG:  cpu time    3.9189: real time    3.9183
  RMM-DIIS:  cpu time   19.0415: real time   19.0391
    ORTHCH:  cpu time    0.5342: real time    0.5342
 BZINTS: Fermi energy:  3.776464;464.000000 electrons
         Band energy:***********;  BLOECHL correction:  0.000000
       DOS:  cpu time    0.0085: real time    0.0085
    CHARGE:  cpu time    0.9790: real time    0.9789
    MIXING:  cpu time    0.0013: real time    0.0013
    --------------------------------------------
      LOOP:  cpu time   24.5416: real time   24.5564

 eigenvalue-minimisations  : 34021
 total energy-change (2. order) :-0.2498703E-01  (-0.3628790E-01)
 number of electron     464.0000044 magnetization 
 augmentation part       45.2415833 magnetization 

 Broyden mixing:
  rms(total) = 0.87803E-01    rms(broyden)= 0.87788E-01
  rms(prec ) = 0.96824E-01
  weight for this iteration     100.00

 eigenvalues of (default mixing * dielectric matrix)
  average eigenvalue GAMMA=   1.4951
  2.6739  1.9998  0.9934  0.9934  0.8152

 Free energy of the ion-electron system (eV)
  ---------------------------------------------------
  alpha Z        PSCENC =      1823.26673663
  Ewald energy   TEWEN  =    -27757.02283481
  -Hartree energ DENC   =    -10655.85237371
  -exchange      EXHF   =         0.00000000
  -V(xc)+E(xc)   XCENC  =      1535.79695860
  PAW double counting   =     52701.58040199   -52033.64372431
  entropy T*S    EENTRO =         0.00000000
  eigenvalues    EBANDS =     -3367.79126134
  atomic energy  EATOM  =     37080.84622879
  Solvation  Ediel_sol  =         0.00000000
  ---------------------------------------------------
  free energy    TOTEN  =      -672.81986816 eV

  energy without entropy =     -672.81986816  energy(sigma->0) =     -672.81986816


--------------------------------------------------------------------------------------------------------




--------------------------------------- Iteration      1(  11)  ---------------------------------------


    POTLOK:  cpu time    0.0501: real time    0.0623
    SETDIJ:  cpu time    0.0105: real time    0.0107
    EDDIAG:  cpu time    3.9035: real time    3.9030
  RMM-DIIS:  cpu time   19.8911: real time   19.8893
    ORTHCH:  cpu time    0.5334: real time    0.5333
 BZINTS: Fermi energy:  3.764730;464.000000 electrons
         Band energy:***********;  BLOECHL correction:  0.000000
       DOS:  cpu time    0.0086: real time    0.0086
    CHARGE:  cpu time    0.9783: real time    0.9781
    MIXING:  cpu time    0.0014: real time    0.0014
    --------------------------------------------
      LOOP:  cpu time   25.3768: real time   25.3867

 eigenvalue-minimisations  : 35190
 total energy-change (2. order) :-0.8177266E-02  (-0.1013319E-01)
 number of electron     464.0000044 magnetization 
 augmentation part       45.1816582 magnetization 

 Broyden mixing:
  rms(total) = 0.26134E-01    rms(broyden)= 0.26117E-01
  rms(prec ) = 0.29203E-01
  weight for this iteration     100.00

 eigenvalues of (default mixing * dielectric matrix)
  average eigenvalue GAMMA=   1.6171
  3.2645  2.1658  1.4318  0.9903  0.9903  0.8603

 Free energy of the ion-electron system (eV)
  ---------------------------------------------------
  alpha Z        PSCENC =      1823.26673663
  Ewald energy   TEWEN  =    -27757.02283481
  -Hartree energ DENC   =    -10662.25877589
  -exchange      EXHF   =         0.00000000
  -V(xc)+E(xc)   XCENC  =      1536.03426007
  PAW double counting   =     52650.10192503   -51978.66951954
  entropy T*S    EENTRO =         0.00000000
  eigenvalues    EBANDS =     -3365.12606570
  atomic energy  EATOM  =     37080.84622879
  Solvation  Ediel_sol  =         0.00000000
  ---------------------------------------------------
  free energy    TOTEN  =      -672.82804543 eV

  energy without entropy =     -672.82804543  energy(sigma->0) =     -672.82804543


--------------------------------------------------------------------------------------------------------




--------------------------------------- Iteration      1(  12)  ---------------------------------------


    POTLOK:  cpu time    0.0475: real time    0.0604
    SETDIJ:  cpu time    0.0105: real time    0.0106
    EDDIAG:  cpu time    3.9205: real time    3.9198
  RMM-DIIS:  cpu time   20.0360: real time   20.0328
    ORTHCH:  cpu time    0.5293: real time    0.5293
 BZINTS: Fermi energy:  3.920455;464.000000 electrons
         Band energy:***********;  BLOECHL correction:  0.000000
       DOS:  cpu time    0.0101: real time    0.0101
    CHARGE:  cpu time    0.9783: real time    0.9782
    MIXING:  cpu time    0.0014: real time    0.0014
    --------------------------------------------
      LOOP:  cpu time   25.5336: real time   25.5425

 eigenvalue-minimisations  : 34791
 total energy-change (2. order) :-0.3256746E-02  (-0.3895518E-02)
 number of electron     464.0000044 magnetization 
 augmentation part       45.1412351 magnetization 

 Broyden mixing:
  rms(total) = 0.14662E-01    rms(broyden)= 0.14654E-01
  rms(prec ) = 0.15657E-01
  weight for this iteration     100.00

 eigenvalues of (default mixing * dielectric matrix)
  average eigenvalue GAMMA=   1.6429
  3.7005  2.3592  1.6194  0.9797  0.9797  0.8543  1.0075

 Free energy of the ion-electron system (eV)
  ---------------------------------------------------
  alpha Z        PSCENC =      1823.26673663
  Ewald energy   TEWEN  =    -27757.02283481
  -Hartree energ DENC   =    -10663.82103363
  -exchange      EXHF   =         0.00000000
  -V(xc)+E(xc)   XCENC  =      1536.09668626
  PAW double counting   =     52645.21625668   -51971.34961608
  entropy T*S    EENTRO =         0.00000000
  eigenvalues    EBANDS =     -3366.06372602
  atomic energy  EATOM  =     37080.84622879
  Solvation  Ediel_sol  =         0.00000000
  ---------------------------------------------------
  free energy    TOTEN  =      -672.83130217 eV

  energy without entropy =     -672.83130217  energy(sigma->0) =     -672.83130217


--------------------------------------------------------------------------------------------------------




--------------------------------------- Iteration      1(  13)  ---------------------------------------


    POTLOK:  cpu time    0.0483: real time    0.0603
    SETDIJ:  cpu time    0.0106: real time    0.0107
    EDDIAG:  cpu time    3.9074: real time    3.9071
  RMM-DIIS:  cpu time   20.1097: real time   20.1075
    ORTHCH:  cpu time    0.5307: real time    0.5307
 BZINTS: Fermi energy:  3.900781;464.000000 electrons
         Band energy:***********;  BLOECHL correction:  0.000000
       DOS:  cpu time    0.0101: real time    0.0101
    CHARGE:  cpu time    0.9796: real time    0.9795
    MIXING:  cpu time    0.0014: real time    0.0014
    --------------------------------------------
      LOOP:  cpu time   25.5978: real time   25.6073

 eigenvalue-minimisations  : 34703
 total energy-change (2. order) :-0.9574844E-03  (-0.1249865E-02)
 number of electron     464.0000044 magnetization 
 augmentation part       45.1239889 magnetization 

 Broyden mixing:
  rms(total) = 0.10159E-01    rms(broyden)= 0.10157E-01
  rms(prec ) = 0.10533E-01
  weight for this iteration     100.00

 eigenvalues of (default mixing * dielectric matrix)
  average eigenvalue GAMMA=   1.6950
  3.9023  2.4500  1.9254  1.5041  0.9775  0.9775  0.9117  0.9117

 Free energy of the ion-electron system (eV)
  ---------------------------------------------------
  alpha Z        PSCENC =      1823.26673663
  Ewald energy   TEWEN  =    -27757.02283481
  -Hartree energ DENC   =    -10664.02411268
  -exchange      EXHF   =         0.00000000
  -V(xc)+E(xc)   XCENC  =      1536.08099170
  PAW double counting   =     52630.68345509   -51955.80224451
  entropy T*S    EENTRO =         0.00000000
  eigenvalues    EBANDS =     -3366.86047987
  atomic energy  EATOM  =     37080.84622879
  Solvation  Ediel_sol  =         0.00000000
  ---------------------------------------------------
  free energy    TOTEN  =      -672.83225966 eV

  energy without entropy =     -672.83225966  energy(sigma->0) =     -672.83225966


--------------------------------------------------------------------------------------------------------




--------------------------------------- Iteration      1(  14)  ---------------------------------------


    POTLOK:  cpu time    0.0475: real time    0.0645
    SETDIJ:  cpu time    0.0103: real time    0.0103
    EDDIAG:  cpu time    3.9001: real time    3.8996
  RMM-DIIS:  cpu time   20.0499: real time   20.0483
    ORTHCH:  cpu time    0.5298: real time    0.5298
 BZINTS: Fermi energy:  3.882293;464.000000 electrons
         Band energy:***********;  BLOECHL correction:  0.000000
       DOS:  cpu time    0.0101: real time    0.0101
    CHARGE:  cpu time    0.9778: real time    0.9777
    MIXING:  cpu time    0.0014: real time    0.0014
    --------------------------------------------
      LOOP:  cpu time   25.5269: real time   25.5416

 eigenvalue-minimisations  : 34995
 total energy-change (2. order) :-0.4616630E-03  (-0.5028585E-03)
 number of electron     464.0000044 magnetization 
 augmentation part       45.1071044 magnetization 

 Broyden mixing:
  rms(total) = 0.45326E-02    rms(broyden)= 0.45301E-02
  rms(prec ) = 0.51670E-02
  weight for this iteration     100.00

 eigenvalues of (default mixing * dielectric matrix)
  average eigenvalue GAMMA=   1.8233
  5.3552  2.4795  2.2448  1.6389  0.9889  0.9889  0.9399  0.9399  0.8331

 Free energy of the ion-electron system (eV)
  ---------------------------------------------------
  alpha Z        PSCENC =      1823.26673663
  Ewald energy   TEWEN  =    -27757.02283481
  -Hartree energ DENC   =    -10664.24336326
  -exchange      EXHF   =         0.00000000
  -V(xc)+E(xc)   XCENC  =      1536.09080011
  PAW double counting   =     52644.89733175   -51969.67489940
  entropy T*S    EENTRO =         0.00000000
  eigenvalues    EBANDS =     -3366.99272112
  atomic energy  EATOM  =     37080.84622879
  Solvation  Ediel_sol  =         0.00000000
  ---------------------------------------------------
  free energy    TOTEN  =      -672.83272132 eV

  energy without entropy =     -672.83272132  energy(sigma->0) =     -672.83272132


--------------------------------------------------------------------------------------------------------




--------------------------------------- Iteration      1(  15)  ---------------------------------------


    POTLOK:  cpu time    0.0475: real time    0.0650
    SETDIJ:  cpu time    0.0105: real time    0.0106
    EDDIAG:  cpu time    3.9221: real time    3.9216
WARNING in EDDRMM: call to ZHEGV failed, returncode =   8  4      4
  RMM-DIIS:  cpu time   20.0805: real time   20.0779
    ORTHCH:  cpu time    0.5295: real time    0.5295
 BZINTS: Fermi energy:  3.873375;464.000000 electrons
         Band energy:***********;  BLOECHL correction:  0.000000
       DOS:  cpu time    0.0101: real time    0.0101
    CHARGE:  cpu time    0.9781: real time    0.9779
    MIXING:  cpu time    0.0015: real time    0.0015
    --------------------------------------------
      LOOP:  cpu time   25.5799: real time   25.5940

 eigenvalue-minimisations  : 34957
 total energy-change (2. order) :-0.1387849E-03  (-0.1532807E-03)
 number of electron     464.0000044 magnetization 
 augmentation part       45.1015199 magnetization 

 Broyden mixing:
  rms(total) = 0.36160E-02    rms(broyden)= 0.36152E-02
  rms(prec ) = 0.39908E-02
  weight for this iteration     100.00

 eigenvalues of (default mixing * dielectric matrix)
  average eigenvalue GAMMA=   1.6125
  3.6121  2.5637  2.1859  1.6360  1.4197  0.9962  0.9962  1.0314  0.8512  0.8328

 Free energy of the ion-electron system (eV)
  ---------------------------------------------------
  alpha Z        PSCENC =      1823.26673663
  Ewald energy   TEWEN  =    -27757.02283481
  -Hartree energ DENC   =    -10664.93074538
  -exchange      EXHF   =         0.00000000
  -V(xc)+E(xc)   XCENC  =      1536.11571235
  PAW double counting   =     52656.05947341   -51980.19057906
  entropy T*S    EENTRO =         0.00000000
  eigenvalues    EBANDS =     -3366.97685203
  atomic energy  EATOM  =     37080.84622879
  Solvation  Ediel_sol  =         0.00000000
  ---------------------------------------------------
  free energy    TOTEN  =      -672.83286010 eV

  energy without entropy =     -672.83286010  energy(sigma->0) =     -672.83286010


--------------------------------------------------------------------------------------------------------




--------------------------------------- Iteration      1(  16)  ---------------------------------------


    POTLOK:  cpu time    0.0473: real time    0.0646
    SETDIJ:  cpu time    0.0104: real time    0.0106
    EDDIAG:  cpu time    3.9005: real time    3.8999
  RMM-DIIS:  cpu time   19.9035: real time   19.9008
    ORTHCH:  cpu time    0.5312: real time    0.5312
 BZINTS: Fermi energy:  3.865050;464.000000 electrons
         Band energy:***********;  BLOECHL correction:  0.000000
       DOS:  cpu time    0.0101: real time    0.0101
    CHARGE:  cpu time    0.9762: real time    0.9760
    MIXING:  cpu time    0.0016: real time    0.0016
    --------------------------------------------
      LOOP:  cpu time   25.3808: real time   25.3948

 eigenvalue-minimisations  : 34860
 total energy-change (2. order) :-0.7559639E-04  (-0.8695554E-04)
 number of electron     464.0000044 magnetization 
 augmentation part       45.0937495 magnetization 

 Broyden mixing:
  rms(total) = 0.53740E-02    rms(broyden)= 0.53738E-02
  rms(prec ) = 0.61209E-02
  weight for this iteration     100.00

 eigenvalues of (default mixing * dielectric matrix)
  average eigenvalue GAMMA=   1.4524
  3.2988  2.5403  2.1476  1.6250  1.3830  0.9963  0.9963  1.0089  0.8668  0.8085
  0.3049

 Free energy of the ion-electron system (eV)
  ---------------------------------------------------
  alpha Z        PSCENC =      1823.26673663
  Ewald energy   TEWEN  =    -27757.02283481
  -Hartree energ DENC   =    -10664.37344896
  -exchange      EXHF   =         0.00000000
  -V(xc)+E(xc)   XCENC  =      1536.09415327
  PAW double counting   =     52653.00792764   -51977.63989993
  entropy T*S    EENTRO =         0.00000000
  eigenvalues    EBANDS =     -3367.01179833
  atomic energy  EATOM  =     37080.84622879
  Solvation  Ediel_sol  =         0.00000000
  ---------------------------------------------------
  free energy    TOTEN  =      -672.83293570 eV

  energy without entropy =     -672.83293570  energy(sigma->0) =     -672.83293570


--------------------------------------------------------------------------------------------------------




--------------------------------------- Iteration      1(  17)  ---------------------------------------


    POTLOK:  cpu time    0.0477: real time    0.0651
    SETDIJ:  cpu time    0.0106: real time    0.0107
    EDDIAG:  cpu time    3.9094: real time    3.9089
  RMM-DIIS:  cpu time   19.1104: real time   19.1074
    ORTHCH:  cpu time    0.5341: real time    0.5340
 BZINTS: Fermi energy:  3.857714;464.000000 electrons
         Band energy:***********;  BLOECHL correction:  0.000000
       DOS:  cpu time    0.0101: real time    0.0101
    CHARGE:  cpu time    0.9771: real time    0.9770
    MIXING:  cpu time    0.0016: real time    0.0016
    --------------------------------------------
      LOOP:  cpu time   24.6009: real time   24.6148

 eigenvalue-minimisations  : 33195
 total energy-change (2. order) :-0.2529078E-04  (-0.2633394E-04)
 number of electron     464.0000044 magnetization 
 augmentation part       45.0898492 magnetization 

 Broyden mixing:
  rms(total) = 0.78201E-02    rms(broyden)= 0.78200E-02
  rms(prec ) = 0.89278E-02
  weight for this iteration     100.00

 eigenvalues of (default mixing * dielectric matrix)
  average eigenvalue GAMMA=   1.4002
  3.3684  2.5505  2.2447  1.5675  1.3669  1.0043  1.0043  0.9906  0.8339  0.8339
  0.5187  0.5187

 Free energy of the ion-electron system (eV)
  ---------------------------------------------------
  alpha Z        PSCENC =      1823.26673663
  Ewald energy   TEWEN  =    -27757.02283481
  -Hartree energ DENC   =    -10664.26998407
  -exchange      EXHF   =         0.00000000
  -V(xc)+E(xc)   XCENC  =      1536.09036924
  PAW double counting   =     52651.24970034   -51975.98867858
  entropy T*S    EENTRO =         0.00000000
  eigenvalues    EBANDS =     -3367.00449852
  atomic energy  EATOM  =     37080.84622879
  Solvation  Ediel_sol  =         0.00000000
  ---------------------------------------------------
  free energy    TOTEN  =      -672.83296099 eV

  energy without entropy =     -672.83296099  energy(sigma->0) =     -672.83296099


--------------------------------------------------------------------------------------------------------




--------------------------------------- Iteration      1(  18)  ---------------------------------------


    POTLOK:  cpu time    0.0473: real time    0.0664
    SETDIJ:  cpu time    0.0105: real time    0.0107
    EDDIAG:  cpu time    3.9184: real time    3.9182
WARNING in EDDRMM: call to ZHEGV failed, returncode =   8  4      4
  RMM-DIIS:  cpu time   18.8230: real time   18.8208
    ORTHCH:  cpu time    0.5304: real time    0.5304
 BZINTS: Fermi energy:  3.851033;464.000000 electrons
         Band energy:***********;  BLOECHL correction:  0.000000
       DOS:  cpu time    0.0101: real time    0.0101
    CHARGE:  cpu time    0.9746: real time    0.9745
    MIXING:  cpu time    0.0017: real time    0.0017
    --------------------------------------------
      LOOP:  cpu time   24.3161: real time   24.3328

 eigenvalue-minimisations  : 32251
 total energy-change (2. order) :-0.2723571E+00  (-0.2723606E+00)
 number of electron     464.0000044 magnetization 
 augmentation part       44.9899206 magnetization 

 Broyden mixing:
  rms(total) = 0.16470E+01    rms(broyden)= 0.16470E+01
  rms(prec ) = 0.16473E+01
  weight for this iteration     100.00

 eigenvalues of (default mixing * dielectric matrix)
[...]
 augmentation part       45.0949482 magnetization 

  free energy =  -0.676065969497E+03  energy without entropy=  -0.676065969497E+03


--------------------------------------------------------------------------------------------------------




------------------------ aborting loop because EDIFF is reached ----------------------------------------


    CHARGE:  cpu time    0.9751: real time    0.9749
    FORLOC:  cpu time    0.0159: real time    0.0159
    FORNL :  cpu time    8.3099: real time    8.3090
    STRESS:  cpu time   24.9382: real time   24.9355
    FORCOR:  cpu time    0.0498: real time    0.0498
    FORHAR:  cpu time    0.0226: real time    0.0225
    MIXING:  cpu time    0.0010: real time    0.0010
    OFIELD:  cpu time    0.0000: real time    0.0000

  FORCE on cell =-STRESS in cart. coord.  units (eV):
  Direction    XX          YY          ZZ          XY          YZ          ZX
  --------------------------------------------------------------------------------------
  Alpha Z  1823.26674  1823.26674  1823.26674
  Ewald   -9295.63059 -9221.26875 -9754.83205    49.34773   -37.46833    98.90370
  Hartree  3360.89916  3432.40117  3349.45725    42.24237   -35.65846    89.31252
  E(xc)   -2206.08089 -2206.11874 -2202.77805     0.06551    -0.00936    -0.01143
  Local   -2153.53488 -2299.26063 -1696.32015   -91.79545    73.14563  -188.33678
  n-local -1203.11852 -1202.90228 -1193.79689    -0.41011     0.02623    -0.00182
  augment   514.04807   514.00660   509.95510     0.06483    -0.00534    -0.00233
  Kinetic  9237.15425  9236.87873  9242.10529     0.48152    -0.03276     0.14006
  Fock        0.00000     0.00000     0.00000     0.00000     0.00000     0.00000
  -------------------------------------------------------------------------------------
  Total      77.00334    77.00284    77.05724    -0.00360    -0.00238     0.00392
  in kB     163.47061   163.46952   163.58501    -0.00765    -0.00506     0.00832
  external pressure =      163.51 kB  Pullay stress =        0.00 kB



--------------------------------------------------------------------------------------------------------



  FREE ENERGIE OF THE ION-ELECTRON SYSTEM (eV)
  ---------------------------------------------------
  free  energy   TOTEN  =      -676.06596950 eV

  energy  without entropy=     -676.06596950  energy(sigma->0) =     -676.06596950
 
 d Force =-0.2713628E-05[-0.208E-04, 0.154E-04]  d Energy =-0.5051988E-06-0.221E-05
 d Force = 0.5523099E-01[ 0.551E-01, 0.553E-01]  d Ewald  = 0.5965861E-01-0.443E-02


--------------------------------------------------------------------------------------------------------


    POTLOK:  cpu time    0.0563: real time    0.0563


--------------------------------------------------------------------------------------------------------


 Quasi-Newton relaxation of ions (Broydens 2nd method)
  g(Force)  = 0.106E-04   g(Stress)= 0.366E-06

 retain information from N=  1 steps
 eigenvalues of (default step * inverse Hessian matrix)
  average eigenvalue of G=   1.0542
 eigenvalue spectrum of G is  1.0542


--------------------------------------------------------------------------------------------------------


    WAVPRE:  cpu time    0.0233: real time    0.0260
    FEWALD:  cpu time    0.0025: real time    0.0025
    GENKIN:  cpu time    0.2001: real time    0.2001
    ORTHCH:  cpu time    3.1888: real time    3.1886
     LOOP+:  cpu time  130.2130: real time  130.2833


--------------------------------------- Iteration     26(   1)  ---------------------------------------


    POTLOK:  cpu time    0.0667: real time    0.0721
    SETDIJ:  cpu time    0.0116: real time    0.0116
     EDDAV:  cpu time   36.2232: real time   36.2191
 BZINTS: Fermi energy:  3.835944;464.000000 electrons
         Band energy:***********;  BLOECHL correction:  0.000000
       DOS:  cpu time    0.0110: real time    0.0110
    CHARGE:  cpu time    0.9751: real time    0.9749
    MIXING:  cpu time    0.0009: real time    0.0009
    --------------------------------------------
      LOOP:  cpu time   37.2886: real time   37.2897

 eigenvalue-minimisations  : 28512
 total energy-change (2. order) :-0.6012611E-05  (-0.7784724E-04)
 number of electron     463.9999985 magnetization 
 augmentation part       45.0949133 magnetization 

  free energy =  -0.676065975629E+03  energy without entropy=  -0.676065975629E+03


--------------------------------------------------------------------------------------------------------




--------------------------------------- Iteration     26(   2)  ---------------------------------------


    POTLOK:  cpu time    0.0458: real time    0.0559
    SETDIJ:  cpu time    0.0100: real time    0.0100
    EDDIAG:  cpu time    3.9383: real time    3.9379
  RMM-DIIS:  cpu time   12.6599: real time   12.6580
    ORTHCH:  cpu time    0.5276: real time    0.5275
 BZINTS: Fermi energy:  3.835526;464.000000 electrons
         Band energy:***********;  BLOECHL correction:  0.000000
       DOS:  cpu time    0.0101: real time    0.0101
    CHARGE:  cpu time    0.9777: real time    0.9776
    MIXING:  cpu time    0.0010: real time    0.0010
    --------------------------------------------
      LOOP:  cpu time   18.1704: real time   18.1781

 eigenvalue-minimisations  : 21722
 total energy-change (2. order) :-0.1742395E-05  (-0.2190719E-05)
 number of electron     463.9999985 magnetization 
 augmentation part       45.0949221 magnetization 

 eigenvalues of (default mixing * dielectric matrix)
  average eigenvalue GAMMA=   1.0666
  1.0666

  free energy =  -0.676065977372E+03  energy without entropy=  -0.676065977372E+03


--------------------------------------------------------------------------------------------------------




--------------------------------------- Iteration     26(   3)  ---------------------------------------


    POTLOK:  cpu time    0.0458: real time    0.0626
    SETDIJ:  cpu time    0.0101: real time    0.0101
    EDDIAG:  cpu time    3.9021: real time    3.9015
  RMM-DIIS:  cpu time    8.1848: real time    8.1838
    ORTHCH:  cpu time    0.5285: real time    0.5284
 BZINTS: Fermi energy:  3.835449;464.000000 electrons
         Band energy:***********;  BLOECHL correction:  0.000000
       DOS:  cpu time    0.0100: real time    0.0100
    CHARGE:  cpu time    0.9753: real time    0.9751
    MIXING:  cpu time    0.0011: real time    0.0011
    --------------------------------------------
      LOOP:  cpu time   13.6576: real time   13.6725

 eigenvalue-minimisations  : 10722
 total energy-change (2. order) : 0.1672743E-06  (-0.1054989E-06)
 number of electron     463.9999985 magnetization 
 augmentation part       45.0949404 magnetization 

 eigenvalues of (default mixing * dielectric matrix)
  average eigenvalue GAMMA=   1.3812
  1.2908  1.4717

  free energy =  -0.676065977204E+03  energy without entropy=  -0.676065977204E+03


--------------------------------------------------------------------------------------------------------




--------------------------------------- Iteration     26(   4)  ---------------------------------------


    POTLOK:  cpu time    0.0455: real time    0.0672
    SETDIJ:  cpu time    0.0105: real time    0.0106
    EDDIAG:  cpu time    3.9009: real time    3.9004
  RMM-DIIS:  cpu time    8.1126: real time    8.1116
    ORTHCH:  cpu time    0.5302: real time    0.5302
 BZINTS: Fermi energy:  3.835383;464.000000 electrons
         Band energy:***********;  BLOECHL correction:  0.000000
       DOS:  cpu time    0.0100: real time    0.0100
    --------------------------------------------
      LOOP:  cpu time   12.6098: real time   12.6301

 eigenvalue-minimisations  : 10672
 total energy-change (2. order) : 0.1353328E-07  (-0.4961538E-07)
 number of electron     463.9999985 magnetization 
 augmentation part       45.0949404 magnetization 

  free energy =  -0.676065977191E+03  energy without entropy=  -0.676065977191E+03


--------------------------------------------------------------------------------------------------------




------------------------ aborting loop because EDIFF is reached ----------------------------------------


    CHARGE:  cpu time    0.9728: real time    0.9726
    FORLOC:  cpu time    0.0159: real time    0.0159
    FORNL :  cpu time    8.3107: real time    8.3101
    STRESS:  cpu time   24.9079: real time   24.9045
    FORCOR:  cpu time    0.0496: real time    0.0496
    FORHAR:  cpu time    0.0225: real time    0.0225
    MIXING:  cpu time    0.0010: real time    0.0010
    OFIELD:  cpu time    0.0000: real time    0.0000

  FORCE on cell =-STRESS in cart. coord.  units (eV):
  Direction    XX          YY          ZZ          XY          YZ          ZX
  --------------------------------------------------------------------------------------
  Alpha Z  1823.26674  1823.26674  1823.26674
  Ewald   -9295.52784 -9221.16448 -9755.10538    49.31317   -37.45366    98.89493
  Hartree  3360.95689  3432.45511  3349.28674    42.22288   -35.64941    89.30586
  E(xc)   -2206.07945 -2206.11771 -2202.77708     0.06570    -0.00928    -0.01159
  Local   -2153.70052 -2299.42360 -1695.87391   -91.74180    73.12242  -188.32152
  n-local -1203.12460 -1202.90784 -1193.79205    -0.41130     0.02588    -0.00180
  augment   514.04968   514.00824   509.95348     0.06493    -0.00522    -0.00242
  Kinetic  9237.15877  9236.88394  9242.08238     0.48295    -0.03230     0.13900
  Fock        0.00000     0.00000     0.00000     0.00000     0.00000     0.00000
  -------------------------------------------------------------------------------------
  Total      76.99968    77.00039    77.04091    -0.00347    -0.00157     0.00245
  in kB     163.46283   163.46432   163.55036    -0.00737    -0.00333     0.00520
  external pressure =      163.49 kB  Pullay stress =        0.00 kB



--------------------------------------------------------------------------------------------------------



  FREE ENERGIE OF THE ION-ELECTRON SYSTEM (eV)
  ---------------------------------------------------
  free  energy   TOTEN  =      -676.06597719 eV

  energy  without entropy=     -676.06597719  energy(sigma->0) =     -676.06597719
 
 d Force = 0.6871467E-05[ 0.630E-05, 0.745E-05]  d Energy = 0.7694005E-05-0.823E-06
 d Force = 0.6826718E-01[ 0.683E-01, 0.683E-01]  d Ewald  = 0.6629752E-01 0.197E-02


--------------------------------------------------------------------------------------------------------


    POTLOK:  cpu time    0.0567: real time    0.0567


--------------------------------------------------------------------------------------------------------


 Quasi-Newton relaxation of ions (Broydens 2nd method)
  g(Force)  = 0.957E-05   g(Stress)= 0.209E-06

 retain information from N=  1 steps
 eigenvalues of (default step * inverse Hessian matrix)
  average eigenvalue of G=   2.8350
 eigenvalue spectrum of G is  2.8350


--------------------------------------------------------------------------------------------------------


    WAVPRE:  cpu time    0.0233: real time    0.0259
    FEWALD:  cpu time    0.0021: real time    0.0024
    GENKIN:  cpu time    0.2002: real time    0.2002
    ORTHCH:  cpu time    3.1895: real time    3.1890
     LOOP+:  cpu time  119.5586: real time  119.6223


--------------------------------------- Iteration     27(   1)  ---------------------------------------


    POTLOK:  cpu time    0.0623: real time    0.0656
    SETDIJ:  cpu time    0.0117: real time    0.0117
     EDDAV:  cpu time   35.8421: real time   35.8375
 BZINTS: Fermi energy:  3.834806;464.000000 electrons
         Band energy:***********;  BLOECHL correction:  0.000000
       DOS:  cpu time    0.0111: real time    0.0111
    CHARGE:  cpu time    0.9767: real time    0.9766
    MIXING:  cpu time    0.0009: real time    0.0009
    --------------------------------------------
      LOOP:  cpu time   36.9049: real time   36.9034

 eigenvalue-minimisations  : 28224
 total energy-change (2. order) :-0.2415778E-05  (-0.8802073E-03)
 number of electron     463.9999985 magnetization 
 augmentation part       45.0947432 magnetization 

  free energy =  -0.676065979620E+03  energy without entropy=  -0.676065979620E+03


--------------------------------------------------------------------------------------------------------




--------------------------------------- Iteration     27(   2)  ---------------------------------------


    POTLOK:  cpu time    0.0457: real time    0.0626
    SETDIJ:  cpu time    0.0104: real time    0.0106
    EDDIAG:  cpu time    3.9118: real time    3.9114
  RMM-DIIS:  cpu time   11.2309: real time   11.2299
    ORTHCH:  cpu time    0.5283: real time    0.5283
 BZINTS: Fermi energy:  3.834644;464.000000 electrons
         Band energy:***********;  BLOECHL correction:  0.000000
       DOS:  cpu time    0.0100: real time    0.0100
    CHARGE:  cpu time    0.9767: real time    0.9766
    MIXING:  cpu time    0.0010: real time    0.0010
    --------------------------------------------
      LOOP:  cpu time   16.7148: real time   16.7304

 eigenvalue-minimisations  : 20826
 total energy-change (2. order) :-0.1786494E-04  (-0.2218663E-04)
 number of electron     463.9999985 magnetization 
 augmentation part       45.0947728 magnetization 

 eigenvalues of (default mixing * dielectric matrix)
  average eigenvalue GAMMA=   1.0607
  1.0607

  free energy =  -0.676065997485E+03  energy without entropy=  -0.676065997485E+03


--------------------------------------------------------------------------------------------------------




--------------------------------------- Iteration     27(   3)  ---------------------------------------


    POTLOK:  cpu time    0.0457: real time    0.0560
    SETDIJ:  cpu time    0.0100: real time    0.0100
    EDDIAG:  cpu time    3.8923: real time    3.8919
  RMM-DIIS:  cpu time   14.9225: real time   14.9214
    ORTHCH:  cpu time    0.5288: real time    0.5288
 BZINTS: Fermi energy:  3.834601;464.000000 electrons
         Band energy:***********;  BLOECHL correction:  0.000000
       DOS:  cpu time    0.0100: real time    0.0100
    CHARGE:  cpu time    0.9816: real time    0.9815
    MIXING:  cpu time    0.0011: real time    0.0011
    --------------------------------------------
      LOOP:  cpu time   20.3921: real time   20.4007

 eigenvalue-minimisations  : 23225
 total energy-change (2. order) : 0.5823313E-06  (-0.1525120E-05)
 number of electron     463.9999985 magnetization 
 augmentation part       45.0948537 magnetization 

 eigenvalues of (default mixing * dielectric matrix)
  average eigenvalue GAMMA=   1.4719
  1.2469  1.6970

  free energy =  -0.676065996903E+03  energy without entropy=  -0.676065996903E+03


--------------------------------------------------------------------------------------------------------




--------------------------------------- Iteration     27(   4)  ---------------------------------------


    POTLOK:  cpu time    0.0459: real time    0.0569
    SETDIJ:  cpu time    0.0105: real time    0.0106
    EDDIAG:  cpu time    3.9040: real time    3.9039
  RMM-DIIS:  cpu time   12.0637: real time   12.0630
    ORTHCH:  cpu time    0.5297: real time    0.5297
 BZINTS: Fermi energy:  3.834568;464.000000 electrons
         Band energy:***********;  BLOECHL correction:  0.000000
       DOS:  cpu time    0.0100: real time    0.0100
    --------------------------------------------
      LOOP:  cpu time   16.5639: real time   16.5742

 eigenvalue-minimisations  : 16523
 total energy-change (2. order) : 0.2973684E-06  (-0.3947555E-06)
 number of electron     463.9999985 magnetization 
 augmentation part       45.0948537 magnetization 

  free energy =  -0.676065996605E+03  energy without entropy=  -0.676065996605E+03


--------------------------------------------------------------------------------------------------------




------------------------ aborting loop because EDIFF is reached ----------------------------------------


    CHARGE:  cpu time    0.9789: real time    0.9788
    FORLOC:  cpu time    0.0159: real time    0.0159
    FORNL :  cpu time    8.3185: real time    8.3178
    STRESS:  cpu time   24.9599: real time   24.9577
    FORCOR:  cpu time    0.0500: real time    0.0499
    FORHAR:  cpu time    0.0226: real time    0.0226
    MIXING:  cpu time    0.0011: real time    0.0011
    OFIELD:  cpu time    0.0000: real time    0.0000

  FORCE on cell =-STRESS in cart. coord.  units (eV):
  Direction    XX          YY          ZZ          XY          YZ          ZX
  --------------------------------------------------------------------------------------
  Alpha Z  1823.26674  1823.26674  1823.26674
  Ewald   -9295.19509 -9220.83935 -9755.97586    49.21784   -37.39672    98.87972
  Hartree  3361.14999  3432.63457  3348.72789    42.16728   -35.61344    89.28904
  E(xc)   -2206.07405 -2206.11341 -2202.77454     0.06613    -0.00888    -0.01216
  Local   -2154.24090 -2299.94272 -1694.43686   -91.59259    73.02968  -188.28976
  n-local -1203.14880 -1202.93085 -1193.77216    -0.41344     0.02413    -0.00064
  augment   514.05452   514.01316   509.94787     0.06519    -0.00487    -0.00253
  Kinetic  9237.17366  9236.90017  9242.01246     0.48868    -0.02999     0.13679
  Fock        0.00000     0.00000     0.00000     0.00000     0.00000     0.00000
  -------------------------------------------------------------------------------------
  Total      76.98608    76.98832    76.99554    -0.00092    -0.00009     0.00047
  in kB     163.43395   163.43872   163.45404    -0.00195    -0.00020     0.00100
  external pressure =      163.44 kB  Pullay stress =        0.00 kB



--------------------------------------------------------------------------------------------------------



  FREE ENERGIE OF THE ION-ELECTRON SYSTEM (eV)
  ---------------------------------------------------
  free  energy   TOTEN  =      -676.06599661 eV

  energy  without entropy=     -676.06599661  energy(sigma->0) =     -676.06599661
 
 d Force = 0.1757807E-04[ 0.890E-05, 0.263E-04]  d Energy = 0.1941455E-04-0.184E-05
 d Force = 0.2184527E+00[ 0.219E+00, 0.218E+00]  d Ewald  = 0.2125508E+00 0.590E-02


--------------------------------------------------------------------------------------------------------


    POTLOK:  cpu time    0.0565: real time    0.0567


--------------------------------------------------------------------------------------------------------


 Quasi-Newton relaxation of ions (Broydens 2nd method)
  g(Force)  = 0.581E-05   g(Stress)= 0.923E-08

 retain information from N=  1 steps
 eigenvalues of (default step * inverse Hessian matrix)
  average eigenvalue of G=   3.6226
 eigenvalue spectrum of G is  3.6226


--------------------------------------------------------------------------------------------------------


  
 reached required accuracy - stopping structural energy minimisation
     LOOP+:  cpu time  125.0526: real time  125.1035
    4ORBIT:  cpu time    0.0000: real time    0.0000

 total amount of memory used by VASP MPI-rank0   181074. kBytes
=======================================================================

   base      :      30000. kBytes
   nonlr-proj:      76126. kBytes
   fftplans  :       4575. kBytes
   grid      :      26165. kBytes
   one-center:       1244. kBytes
   wavefun   :      42964. kBytes
 
  
  
 General timing and accounting informations for this job:
 ========================================================
  
                  Total CPU time used (sec):     5939.368
                            User time (sec):     5816.513
                          System time (sec):      122.855
                         Elapsed time (sec):     5944.286
  
                   Maximum memory used (kb):      409748.
                   Average memory used (kb):           0.
  
                          Minor page faults:     31303620
                          Major page faults:           26
                 Voluntary context switches:        64253
