 running on   72 total cores
 distrk:  each k-point on   72 cores,    1 groups
 distr:  one band on    1 cores,   72 groups
 using from now: INCAR     
 vasp.5.4.4.18Apr17-6-g9f103f2a35 (build Mar 05 2020 17:21:05) complex          
  
 POSCAR found type information on POSCAR  Li Nb O  Ta
 POSCAR found :  4 types and      80 ions

 ----------------------------------------------------------------------------- 
|                                                                             |
|           W    W    AA    RRRRR   N    N  II  N    N   GGGG   !!!           |
|           W    W   A  A   R    R  NN   N  II  NN   N  G    G  !!!           |
|           W    W  A    A  R    R  N N  N  II  N N  N  G       !!!           |
|           W WW W  AAAAAA  RRRRR   N  N N  II  N  N N  G  GGG   !            |
|           WW  WW  A    A  R   R   N   NN  II  N   NN  G    G                |
|           W    W  A    A  R    R  N    N  II  N    N   GGGG   !!!           |
|                                                                             |
|      For optimal performance we recommend to set                            |
|        NCORE= 4 - approx SQRT( number of cores)                             |
|      NCORE specifies how many cores store one orbital (NPAR=cpu/NCORE).     |
|      This setting can  greatly improve the performance of VASP for DFT.     |
|      The default,   NCORE=1            might be grossly inefficient         |
|      on modern multi-core architectures or massively parallel machines.     |
|      Do your own testing !!!!                                               |
|      Unfortunately you need to use the default for GW and RPA calculations. |
|      (for HF NCORE is supported but not extensively tested yet)             |
|                                                                             |
 ----------------------------------------------------------------------------- 



 VERY BAD NEWS! internal error in subroutine IBZKPT:
 Reciprocal lattice and k-lattice belong to different class of lattices. Often results are still useful...     168


 VERY BAD NEWS! internal error in subroutine IBZKPT:
 Reciprocal lattice and k-lattice belong to different class of lattices. Often results are still useful...     168


 VERY BAD NEWS! internal error in subroutine IBZKPT:
 Reciprocal lattice and k-lattice belong to different class of lattices. Often results are still useful...     168


 VERY BAD NEWS! internal error in subroutine IBZKPT:
 Reciprocal lattice and k-lattice belong to different class of lattices. Often results are still useful...     168


 VERY BAD NEWS! internal error in subroutine IBZKPT:
 Reciprocal lattice and k-lattice belong to different class of lattices. Often results are still useful...     168


 VERY BAD NEWS! internal error in subroutine IBZKPT:
 Reciprocal lattice and k-lattice belong to different class of lattices. Often results are still useful...     168


 VERY BAD NEWS! internal error in subroutine IBZKPT:
 Reciprocal lattice and k-lattice belong to different class of lattices. Often results are still useful...     168


 VERY BAD NEWS! internal error in subroutine IBZKPT:
 Reciprocal lattice and k-lattice belong to different class of lattices. Often results are still useful...     168


 VERY BAD NEWS! internal error in subroutine IBZKPT:
 Reciprocal lattice and k-lattice belong to different class of lattices. Often results are still useful...     168


 VERY BAD NEWS! internal error in subroutine IBZKPT:
 Reciprocal lattice and k-lattice belong to different class of lattices. Often results are still useful...     168


 VERY BAD NEWS! internal error in subroutine IBZKPT:
 Reciprocal lattice and k-lattice belong to different class of lattices. Often results are still useful...     168


 VERY BAD NEWS! internal error in subroutine IBZKPT:
 Reciprocal lattice and k-lattice belong to different class of lattices. Often results are still useful...     168


 VERY BAD NEWS! internal error in subroutine IBZKPT:
 Reciprocal lattice and k-lattice belong to different class of lattices. Often results are still useful...     168


 VERY BAD NEWS! internal error in subroutine IBZKPT:
 Reciprocal lattice and k-lattice belong to different class of lattices. Often results are still useful...     168


 VERY BAD NEWS! internal error in subroutine IBZKPT:
 Reciprocal lattice and k-lattice belong to different class of lattices. Often results are still useful...     168


 VERY BAD NEWS! internal error in subroutine IBZKPT:
 Reciprocal lattice and k-lattice belong to different class of lattices. Often results are still useful...     168


 VERY BAD NEWS! internal error in subroutine IBZKPT:
 Reciprocal lattice and k-lattice belong to different class of lattices. Often results are still useful...     168


 VERY BAD NEWS! internal error in subroutine IBZKPT:
 Reciprocal lattice and k-lattice belong to different class of lattices. Often results are still useful...     168


 VERY BAD NEWS! internal error in subroutine IBZKPT:
 Reciprocal lattice and k-lattice belong to different class of lattices. Often results are still useful...     168


 VERY BAD NEWS! internal error in subroutine IBZKPT:
 Reciprocal lattice and k-lattice belong to different class of lattices. Often results are still useful...     168


 VERY BAD NEWS! internal error in subroutine IBZKPT:
 Reciprocal lattice and k-lattice belong to different class of lattices. Often results are still useful...     168


 VERY BAD NEWS! internal error in subroutine IBZKPT:
 Reciprocal lattice and k-lattice belong to different class of lattices. Often results are still useful...     168


 VERY BAD NEWS! internal error in subroutine IBZKPT:
 Reciprocal lattice and k-lattice belong to different class of lattices. Often results are still useful...     168


 VERY BAD NEWS! internal error in subroutine IBZKPT:
 Reciprocal lattice and k-lattice belong to different class of lattices. Often results are still useful...     168


 VERY BAD NEWS! internal error in subroutine IBZKPT:
 Reciprocal lattice and k-lattice belong to different class of lattices. Often results are still useful...     168


 VERY BAD NEWS! internal error in subroutine IBZKPT:
 Reciprocal lattice and k-lattice belong to different class of lattices. Often results are still useful...     168


 VERY BAD NEWS! internal error in subroutine IBZKPT:
 Reciprocal lattice and k-lattice belong to different class of lattices. Often results are still useful...     168


 VERY BAD NEWS! internal error in subroutine IBZKPT:
 Reciprocal lattice and k-lattice belong to different class of lattices. Often results are still useful...     168


 VERY BAD NEWS! internal error in subroutine IBZKPT:
 Reciprocal lattice and k-lattice belong to different class of lattices. Often results are still useful...     168


 VERY BAD NEWS! internal error in subroutine IBZKPT:
 Reciprocal lattice and k-lattice belong to different class of lattices. Often results are still useful...     168


 VERY BAD NEWS! internal error in subroutine IBZKPT:
 Reciprocal lattice and k-lattice belong to different class of lattices. Often results are still useful...     168


 VERY BAD NEWS! internal error in subroutine IBZKPT:
 Reciprocal lattice and k-lattice belong to different class of lattices. Often results are still useful...     168


 VERY BAD NEWS! internal error in subroutine IBZKPT:
 Reciprocal lattice and k-lattice belong to different class of lattices. Often results are still useful...     168


 VERY BAD NEWS! internal error in subroutine IBZKPT:
 Reciprocal lattice and k-lattice belong to different class of lattices. Often results are still useful...     168


 VERY BAD NEWS! internal error in subroutine IBZKPT:
 Reciprocal lattice and k-lattice belong to different class of lattices. Often results are still useful...     168


 VERY BAD NEWS! internal error in subroutine IBZKPT:
 Reciprocal lattice and k-lattice belong to different class of lattices. Often results are still useful...     168


 VERY BAD NEWS! internal error in subroutine IBZKPT:
 Reciprocal lattice and k-lattice belong to different class of lattices. Often results are still useful...     168


 VERY BAD NEWS! internal error in subroutine IBZKPT:
 Reciprocal lattice and k-lattice belong to different class of lattices. Often results are still useful...     168


 VERY BAD NEWS! internal error in subroutine IBZKPT:
 Reciprocal lattice and k-lattice belong to different class of lattices. Often results are still useful...     168


 VERY BAD NEWS! internal error in subroutine IBZKPT:
 Reciprocal lattice and k-lattice belong to different class of lattices. Often results are still useful...     168


 VERY BAD NEWS! internal error in subroutine IBZKPT:
 Reciprocal lattice and k-lattice belong to different class of lattices. Often results are still useful...     168


 VERY BAD NEWS! internal error in subroutine IBZKPT:
 Reciprocal lattice and k-lattice belong to different class of lattices. Often results are still useful...     168


 VERY BAD NEWS! internal error in subroutine IBZKPT:
 Reciprocal lattice and k-lattice belong to different class of lattices. Often results are still useful...     168


 VERY BAD NEWS! internal error in subroutine IBZKPT:
 Reciprocal lattice and k-lattice belong to different class of lattices. Often results are still useful...     168


 VERY BAD NEWS! internal error in subroutine IBZKPT:
 Reciprocal lattice and k-lattice belong to different class of lattices. Often results are still useful...     168


 VERY BAD NEWS! internal error in subroutine IBZKPT:
 Reciprocal lattice and k-lattice belong to different class of lattices. Often results are still useful...     168


 VERY BAD NEWS! internal error in subroutine IBZKPT:
 Reciprocal lattice and k-lattice belong to different class of lattices. Often results are still useful...     168


 VERY BAD NEWS! internal error in subroutine IBZKPT:
 Reciprocal lattice and k-lattice belong to different class of lattices. Often results are still useful...     168


 VERY BAD NEWS! internal error in subroutine IBZKPT:
 Reciprocal lattice and k-lattice belong to different class of lattices. Often results are still useful...     168

 ----------------------------------------------------------------------------- 
|                                                                             |
|  ADVICE TO THIS USER RUNNING 'VASP/VAMP'   (HEAR YOUR MASTER'S VOICE ...):  |
|                                                                             |
|      You enforced a specific xc-type in the INCAR file,                     |
|      a different type was found on the POTCAR file                          |
|          I HOPE YOU KNOW, WHAT YOU ARE  DOING                               |
|                                                                             |
 ----------------------------------------------------------------------------- 



 VERY BAD NEWS! internal error in subroutine IBZKPT:
 Reciprocal lattice and k-lattice belong to different class of lattices. Often results are still useful...     168


 VERY BAD NEWS! internal error in subroutine IBZKPT:
 Reciprocal lattice and k-lattice belong to different class of lattices. Often results are still useful...     168


 VERY BAD NEWS! internal error in subroutine IBZKPT:
 Reciprocal lattice and k-lattice belong to different class of lattices. Often results are still useful...     168


 VERY BAD NEWS! internal error in subroutine IBZKPT:
 Reciprocal lattice and k-lattice belong to different class of lattices. Often results are still useful...     168


 VERY BAD NEWS! internal error in subroutine IBZKPT:
 Reciprocal lattice and k-lattice belong to different class of lattices. Often results are still useful...     168


 VERY BAD NEWS! internal error in subroutine IBZKPT:
 Reciprocal lattice and k-lattice belong to different class of lattices. Often results are still useful...     168


 VERY BAD NEWS! internal error in subroutine IBZKPT:
 Reciprocal lattice and k-lattice belong to different class of lattices. Often results are still useful...     168


 VERY BAD NEWS! internal error in subroutine IBZKPT:
 Reciprocal lattice and k-lattice belong to different class of lattices. Often results are still useful...     168


 VERY BAD NEWS! internal error in subroutine IBZKPT:
 Reciprocal lattice and k-lattice belong to different class of lattices. Often results are still useful...     168


 VERY BAD NEWS! internal error in subroutine IBZKPT:
 Reciprocal lattice and k-lattice belong to different class of lattices. Often results are still useful...     168


 VERY BAD NEWS! internal error in subroutine IBZKPT:
 Reciprocal lattice and k-lattice belong to different class of lattices. Often results are still useful...     168


 VERY BAD NEWS! internal error in subroutine IBZKPT:
 Reciprocal lattice and k-lattice belong to different class of lattices. Often results are still useful...     168
 LDA part: xc-table for Pade appr. of Perdew


 VERY BAD NEWS! internal error in subroutine IBZKPT:
 Reciprocal lattice and k-lattice belong to different class of lattices. Often results are still useful...     168


 VERY BAD NEWS! internal error in subroutine IBZKPT:
 Reciprocal lattice and k-lattice belong to different class of lattices. Often results are still useful...     168


 VERY BAD NEWS! internal error in subroutine IBZKPT:
 Reciprocal lattice and k-lattice belong to different class of lattices. Often results are still useful...     168


 VERY BAD NEWS! internal error in subroutine IBZKPT:
 Reciprocal lattice and k-lattice belong to different class of lattices. Often results are still useful...     168


 VERY BAD NEWS! internal error in subroutine IBZKPT:
 Reciprocal lattice and k-lattice belong to different class of lattices. Often results are still useful...     168


 VERY BAD NEWS! internal error in subroutine IBZKPT:
 Reciprocal lattice and k-lattice belong to different class of lattices. Often results are still useful...     168


 VERY BAD NEWS! internal error in subroutine IBZKPT:
 Reciprocal lattice and k-lattice belong to different class of lattices. Often results are still useful...     168


 VERY BAD NEWS! internal error in subroutine IBZKPT:
 Reciprocal lattice and k-lattice belong to different class of lattices. Often results are still useful...     168


 VERY BAD NEWS! internal error in subroutine IBZKPT:
 Reciprocal lattice and k-lattice belong to different class of lattices. Often results are still useful...     168


 VERY BAD NEWS! internal error in subroutine IBZKPT:
 Reciprocal lattice and k-lattice belong to different class of lattices. Often results are still useful...     168


 VERY BAD NEWS! internal error in subroutine IBZKPT:
 Reciprocal lattice and k-lattice belong to different class of lattices. Often results are still useful...     168
 POSCAR, INCAR and KPOINTS ok, starting setup
 FFT: planning ...
 WAVECAR not read
 entering main loop
       N       E                     dE             d eps       ncg     rms          rms(c)
DAV:   1     0.374774206550E+04    0.37477E+04   -0.24964E+05 20736   0.150E+03
DAV:   2    -0.548897741284E+03   -0.42966E+04   -0.42327E+04 31032   0.469E+02
DAV:   3    -0.786004884179E+03   -0.23711E+03   -0.23633E+03 31248   0.104E+02
DAV:   4    -0.796737535069E+03   -0.10733E+02   -0.10725E+02 36144   0.206E+01
DAV:   5    -0.796912648112E+03   -0.17511E+00   -0.17511E+00 32832   0.200E+00    0.127E+02
RMM:   6    -0.681441237214E+03    0.11547E+03   -0.61538E+02 22838   0.397E+01    0.638E+01
RMM:   7    -0.672985788461E+03    0.84554E+01   -0.29884E+01 22974   0.197E+01    0.255E+01
RMM:   8    -0.672851566302E+03    0.13422E+00   -0.83282E+00 26696   0.463E+00    0.114E+01
RMM:   9    -0.672794881133E+03    0.56685E-01   -0.12980E+00 32070   0.255E+00    0.282E+00
RMM:  10    -0.672819868160E+03   -0.24987E-01   -0.36288E-01 34021   0.992E-01    0.878E-01
RMM:  11    -0.672828045426E+03   -0.81773E-02   -0.10133E-01 35190   0.588E-01    0.261E-01
RMM:  12    -0.672831302172E+03   -0.32567E-02   -0.38955E-02 34791   0.275E-01    0.147E-01
RMM:  13    -0.672832259656E+03   -0.95748E-03   -0.12499E-02 34703   0.157E-01    0.102E-01
RMM:  14    -0.672832721319E+03   -0.46166E-03   -0.50286E-03 34995   0.863E-02    0.453E-02
WARNING in EDDRMM: call to ZHEGV failed, returncode =   8  4      4
RMM:  15    -0.672832860104E+03   -0.13878E-03   -0.15328E-03 34957   0.602E-02    0.362E-02
RMM:  16    -0.672832935701E+03   -0.75596E-04   -0.86956E-04 34860   0.418E-02    0.537E-02
RMM:  17    -0.672832960991E+03   -0.25291E-04   -0.26334E-04 33195   0.223E-02    0.782E-02
WARNING in EDDRMM: call to ZHEGV failed, returncode =   8  4      4
RMM:  18    -0.673105318066E+03   -0.27236E+00   -0.27236E+00 32251   0.135E-02    0.165E+01
WARNING in EDDRMM: call to ZHEGV failed, returncode =   8  4      3
WARNING in EDDRMM: call to ZHEGV failed, returncode =   6  3      3
RMM:  19    -0.672567043592E+03    0.53827E+00   -0.34032E-05 29656   0.991E-03    0.117E-01
RMM:  20    -0.672566765690E+03    0.27790E-03   -0.10298E-03 24422   0.574E-02    0.434E-02
RMM:  21    -0.672566745443E+03    0.20247E-04   -0.16980E-04 26484   0.348E-02    0.761E-02
RMM:  22    -0.672566757497E+03   -0.12053E-04   -0.79634E-05 30595   0.179E-02    0.941E-02
RMM:  23    -0.672566755186E+03    0.23109E-05   -0.10467E-05 24098   0.681E-03    0.902E-02
RMM:  24    -0.672566734121E+03    0.21064E-04   -0.16637E-05 21572   0.111E-02    0.560E-02
RMM:  25    -0.672566725942E+03    0.81792E-05   -0.76411E-06 16200   0.920E-03    0.400E-02
RMM:  26    -0.672566724091E+03    0.18515E-05   -0.38670E-06 15286   0.545E-03    0.326E-02
RMM:  27    -0.672566721890E+03    0.22006E-05   -0.31905E-06 14070   0.562E-03    0.266E-02
RMM:  28    -0.672566719526E+03    0.23636E-05   -0.44994E-06 16144   0.567E-03    0.144E-02
RMM:  29    -0.672566718006E+03    0.15203E-05   -0.41656E-06 14656   0.585E-03    0.643E-03
 num prob RMM:  30    -0.672566717507E+03    0.49946E-06   -0.29912E-06 13361   0.522E-03
   1 F= -.67256672E+03 E0= -.67256672E+03  d E =-.672567E+03
 BRION: g(F)=  0.170E+01 g(S)=  0.228E-01
 bond charge predicted
       N       E                     dE             d eps       ncg     rms          rms(c)
DAV:   1    -0.673933240988E+03   -0.13665E+01   -0.14306E+02 23904   0.266E+01    0.362E+00
RMM:   2    -0.674202081634E+03   -0.26884E+00   -0.35767E+00 23091   0.495E+00    0.258E+00
RMM:   3    -0.674169033545E+03    0.33048E-01   -0.28100E-01 26624   0.168E+00    0.212E+00
RMM:   4    -0.674169389463E+03   -0.35592E-03   -0.53172E-02 33037   0.369E-01    0.122E+00
RMM:   5    -0.674169131486E+03    0.25798E-03   -0.14870E-02 31276   0.225E-01    0.189E-01
WARNING in EDDRMM: call to ZHEGV failed, returncode =   6  3      4
RMM:   6    -0.674169486687E+03   -0.35520E-03   -0.48862E-03 36626   0.907E-02    0.108E-01
RMM:   7    -0.674169515778E+03   -0.29091E-04   -0.12699E-03 36192   0.528E-02    0.555E-02
RMM:   8    -0.675466092222E+03   -0.12966E+01   -0.12966E+01 36574   0.298E-02    0.308E+01
RMM:   9    -0.673712832245E+03    0.17533E+01   -0.17279E-04 34066   0.176E-02    0.898E-02
RMM:  10    -0.673712610505E+03    0.22174E-03   -0.70672E-04 30424   0.436E-02    0.481E-02
RMM:  11    -0.673712581777E+03    0.28728E-04   -0.12198E-04 30956   0.226E-02    0.404E-02
RMM:  12    -0.673712575222E+03    0.65545E-05   -0.42064E-05 31170   0.127E-02    0.952E-03
WARNING in EDDRMM: call to ZHEGV failed, returncode =   6  3      4
RMM:  13    -0.673712574443E+03    0.77946E-06   -0.10408E-05 24227   0.599E-03    0.447E-03
 num prob  num prob  num prob  num prob  num prob  num prob RMM:  14    -0.673712574048E+03    0.39503E-06   -0.38188E-06 15615   0.368E-03
   2 F= -.67371257E+03 E0= -.67371257E+03  d E =-.114586E+01
 BRION: g(F)=  0.653E+00 g(S)=  0.397E-02 retain N=  1 mean eig= 1.79
 eig:   1.794
 bond charge predicted
       N       E                     dE             d eps       ncg     rms          rms(c)
DAV:   1    -0.674845209331E+03   -0.11326E+01   -0.17502E+02 20952   0.275E+01    0.327E+00
RMM:   2    -0.675126105131E+03   -0.28090E+00   -0.36220E+00 23340   0.450E+00    0.222E+00
RMM:   3    -0.675089685623E+03    0.36420E-01   -0.26801E-01 25945   0.145E+00    0.196E+00
RMM:   4    -0.675088872970E+03    0.81265E-03   -0.44730E-02 30243   0.313E-01    0.123E+00
RMM:   5    -0.675087603901E+03    0.12691E-02   -0.18030E-02 26293   0.233E-01    0.261E-01
RMM:   6    -0.675087744667E+03   -0.14077E-03   -0.41096E-03 33003   0.108E-01    0.181E-01
RMM:   7    -0.675087796342E+03   -0.51675E-04   -0.14926E-03 34376   0.500E-02    0.652E-02
RMM:   8    -0.675087822232E+03   -0.25890E-04   -0.56032E-04 36183   0.282E-02    0.572E-02
RMM:   9    -0.675087838974E+03   -0.16742E-04   -0.21149E-04 33579   0.158E-02    0.142E-02
 num prob  num prob RMM:  10    -0.675087845308E+03   -0.63344E-05   -0.74075E-05 29368   0.895E-03    0.101E-02
 num prob RMM:  11    -0.675087846945E+03   -0.16369E-05   -0.27375E-05 26255   0.682E-03    0.229E-03
 num prob  num prob  num prob  num prob  num prob  num prob  num prob  num prob  num prob  num prob  num prob  num prob  num prob RMM:  12    -0.675087848013E+03   -0.10682E-05   -0.11420E-05 20872   0.481E-03    0.102E-03
 num prob  num prob  num prob  num prob RMM:  13    -0.675087848344E+03   -0.33094E-06   -0.44649E-06 17347   0.368E-03
   3 F= -.67508785E+03 E0= -.67508785E+03  d E =-.137527E+01
 BRION: g(F)=  0.271E+00 g(S)=  0.231E-04 retain N=  1 mean eig= 2.05
 eig:   2.047
 bond charge predicted
       N       E                     dE             d eps       ncg     rms          rms(c)
DAV:   1    -0.675441070449E+03   -0.35322E+00   -0.11431E+02 21888   0.225E+01    0.246E+00
RMM:   2    -0.675602686225E+03   -0.16162E+00   -0.20342E+00 22880   0.351E+00    0.161E+00
RMM:   3    -0.675583165943E+03    0.19520E-01   -0.11843E-01 23632   0.113E+00    0.127E+00
RMM:   4    -0.675580976224E+03    0.21897E-02   -0.22219E-02 27357   0.264E-01    0.638E-01
RMM:   5    -0.675580535703E+03    0.44052E-03   -0.54782E-03 25835   0.152E-01    0.106E-01
RMM:   6    -0.675580565778E+03   -0.30075E-04   -0.10802E-03 33682   0.613E-02    0.823E-02
WARNING in EDDRMM: call to ZHEGV failed, returncode =   6  3      4
RMM:   7    -0.675580557208E+03    0.85698E-05   -0.31915E-04 35800   0.269E-02    0.354E-02
WARNING in EDDRMM: call to ZHEGV failed, returncode =   6  3      3
RMM:   8    -0.675580562492E+03   -0.52846E-05   -0.11204E-04 35885   0.170E-02    0.170E-02
RMM:   9    -0.675580565848E+03   -0.33558E-05   -0.39627E-05 31173   0.836E-03    0.661E-03
 num prob  num prob  num prob  num prob  num prob  num prob RMM:  10    -0.675580566322E+03   -0.47406E-06   -0.16196E-05 25337   0.644E-03    0.705E-03
 num prob  num prob  num prob  num prob  num prob  num prob  num prob  num prob  num prob  num prob  num prob  num prob  num prob  num prob  num prob  num prob  num prob  num prob  num prob RMM:  11    -0.675580566373E+03   -0.50211E-07   -0.45576E-06 17683   0.443E-03
   4 F= -.67558057E+03 E0= -.67558057E+03  d E =-.492718E+00
 BRION: g(F)=  0.117E+00 g(S)=  0.155E-02 retain N=  1 mean eig= 1.88
 eig:   1.883
 bond charge predicted
       N       E                     dE             d eps       ncg     rms          rms(c)
DAV:   1    -0.675682242430E+03   -0.10168E+00   -0.13973E+02 20808   0.256E+01    0.253E+00
RMM:   2    -0.675901532371E+03   -0.21929E+00   -0.26667E+00 22460   0.421E+00    0.158E+00
RMM:   3    -0.675883454352E+03    0.18078E-01   -0.16520E-01 23786   0.136E+00    0.121E+00
RMM:   4    -0.675879998775E+03    0.34556E-02   -0.32313E-02 27900   0.318E-01    0.523E-01
RMM:   5    -0.675879755386E+03    0.24339E-03   -0.57225E-03 27964   0.165E-01    0.832E-02
RMM:   6    -0.675879841323E+03   -0.85937E-04   -0.15058E-03 35750   0.579E-02    0.593E-02
RMM:   7    -0.675879843489E+03   -0.21659E-05   -0.38074E-04 36130   0.300E-02    0.251E-02
WARNING in EDDRMM: call to ZHEGV failed, returncode =   8  4      2
RMM:   8    -0.675879855584E+03   -0.12095E-04   -0.13574E-04 35818   0.175E-02    0.962E-03
RMM:   9    -0.675879859390E+03   -0.38064E-05   -0.50199E-05 30681   0.972E-03    0.793E-03
 num prob RMM:  10    -0.675879860806E+03   -0.14153E-05   -0.24783E-05 27461   0.753E-03    0.270E-03
 num prob  num prob  num prob  num prob  num prob  num prob  num prob  num prob  num prob  num prob  num prob  num prob  num prob  num prob  num prob  num prob  num prob  num prob  num prob RMM:  11    -0.675879861199E+03   -0.39362E-06   -0.68762E-06 19225   0.464E-03
   5 F= -.67587986E+03 E0= -.67587986E+03  d E =-.299295E+00
 BRION: g(F)=  0.295E-01 g(S)=  0.390E-02 retain N=  2 mean eig= 3.15
 eig:   4.777  1.514
 bond charge predicted
       N       E                     dE             d eps       ncg     rms          rms(c)
DAV:   1    -0.675908389177E+03   -0.28528E-01   -0.24342E+01 24912   0.116E+01    0.112E+00
RMM:   2    -0.675963452111E+03   -0.55063E-01   -0.67590E-01 22193   0.219E+00    0.572E-01
RMM:   3    -0.675957347317E+03    0.61048E-02   -0.44883E-02 26606   0.731E-01    0.308E-01
RMM:   4    -0.675956593756E+03    0.75356E-03   -0.10688E-02 31270   0.184E-01    0.819E-02
RMM:   5    -0.675956698883E+03   -0.10513E-03   -0.18807E-03 32558   0.812E-02    0.484E-02
RMM:   6    -0.675956747445E+03   -0.48563E-04   -0.56251E-04 36373   0.311E-02    0.202E-02
RMM:   7    -0.675956763997E+03   -0.16551E-04   -0.19897E-04 35457   0.205E-02    0.612E-03
RMM:   8    -0.675956769313E+03   -0.53161E-05   -0.67509E-05 30991   0.112E-02    0.397E-03
 num prob WARNING in EDDRMM: call to ZHEGV failed, returncode =   6  3      3
WARNING in EDDRMM: call to ZHEGV failed, returncode =   6  3      3
RMM:   9    -0.675956772279E+03   -0.29661E-05   -0.40491E-05 31009   0.869E-03    0.130E-03
 num prob  num prob  num prob  num prob  num prob  num prob  num prob  num prob  num prob  num prob  num prob RMM:  10    -0.675956772636E+03   -0.35666E-06   -0.76642E-06 20410   0.491E-03
   6 F= -.67595677E+03 E0= -.67595677E+03  d E =-.769114E-01
 BRION: g(F)=  0.868E-02 g(S)=  0.191E-02 retain N=  1 mean eig= 7.80
 eig:   7.801
 bond charge predicted
       N       E                     dE             d eps       ncg     rms          rms(c)
DAV:   1    -0.675973794123E+03   -0.17022E-01   -0.31936E+00 25920   0.408E+00    0.465E-01
RMM:   2    -0.675978880866E+03   -0.50867E-02   -0.75087E-02 22114   0.720E-01    0.241E-01
RMM:   3    -0.675977709322E+03    0.11715E-02   -0.55787E-03 27457   0.237E-01    0.113E-01
RMM:   4    -0.675977606215E+03    0.10311E-03   -0.12089E-03 30921   0.616E-02    0.356E-02
RMM:   5    -0.675977619196E+03   -0.12980E-04   -0.21858E-04 32013   0.288E-02    0.174E-02
WARNING in EDDRMM: call to ZHEGV failed, returncode =   8  4      2
RMM:   6    -0.675977623339E+03   -0.41435E-05   -0.60656E-05 32427   0.107E-02    0.653E-03
WARNING in EDDRMM: call to ZHEGV failed, returncode =   8  4      2
WARNING in EDDRMM: call to ZHEGV failed, returncode =   6  3      2
RMM:   7    -0.675977625146E+03   -0.18068E-05   -0.29039E-05 25979   0.761E-03    0.269E-03
 num prob  num prob  num prob  num prob  num prob  num prob  num prob  num prob  num prob  num prob  num prob  num prob  num prob  num prob  num prob WARNING in EDDRMM: call to ZHEGV failed, returncode =   8  4      2
 num prob  num prob  num prob  num prob RMM:   8    -0.675977625304E+03   -0.15832E-06   -0.68119E-06 20661   0.474E-03
   7 F= -.67597763E+03 E0= -.67597763E+03  d E =-.208527E-01
 BRION: g(F)=  0.711E-02 g(S)=  0.118E-02
 BRIONS problems: POTIM should be increased
 retain N=  1 mean eig= 9.08
 eig:   9.078
 bond charge predicted
       N       E                     dE             d eps       ncg     rms          rms(c)
DAV:   1    -0.675995681495E+03   -0.18056E-01   -0.24250E+00 24912   0.343E+00    0.443E-01
RMM:   2    -0.675998251984E+03   -0.25705E-02   -0.48836E-02 22704   0.566E-01    0.234E-01
RMM:   3    -0.675997159205E+03    0.10928E-02   -0.38752E-03 27653   0.182E-01    0.974E-02
RMM:   4    -0.675997077354E+03    0.81851E-04   -0.83362E-04 29732   0.517E-02    0.304E-02
RMM:   5    -0.675997085486E+03   -0.81321E-05   -0.14114E-04 31662   0.207E-02    0.143E-02
RMM:   6    -0.675997087365E+03   -0.18787E-05   -0.33417E-05 30224   0.795E-03    0.487E-03
 num prob  num prob WARNING in EDDRMM: call to ZHEGV failed, returncode =   6  3      3
RMM:   7    -0.675997088043E+03   -0.67821E-06   -0.16035E-05 21521   0.548E-03    0.255E-03
 num prob  num prob  num prob  num prob  num prob  num prob  num prob  num prob  num prob  num prob  num prob RMM:   8    -0.675997087927E+03    0.11612E-06   -0.39113E-06 18005   0.411E-03
   8 F= -.67599709E+03 E0= -.67599709E+03  d E =-.194626E-01
 BRION: g(F)=  0.611E-02 g(S)=  0.638E-03
 BRIONS problems: POTIM should be increased
 retain N=  1 mean eig=10.45
 eig:  10.451
 bond charge predicted
       N       E                     dE             d eps       ncg     rms          rms(c)
DAV:   1    -0.676023909339E+03   -0.26821E-01   -0.85892E+00 20736   0.637E+00    0.838E-01
RMM:   2    -0.676032392046E+03   -0.84827E-02   -0.17012E-01 22880   0.104E+00    0.442E-01
RMM:   3    -0.676028565527E+03    0.38265E-02   -0.14225E-02 26973   0.360E-01    0.181E-01
RMM:   4    -0.676028313979E+03    0.25155E-03   -0.33903E-03 29658   0.102E-01    0.556E-02
RMM:   5    -0.676028346558E+03   -0.32579E-04   -0.50417E-04 30690   0.421E-02    0.283E-02
RMM:   6    -0.676028358354E+03   -0.11796E-04   -0.15054E-04 33977   0.155E-02    0.849E-03
WARNING in EDDRMM: call to ZHEGV failed, returncode =   6  3      3
RMM:   7    -0.676028360968E+03   -0.26135E-05   -0.46046E-05 27748   0.922E-03    0.473E-03
WARNING in EDDRMM: call to ZHEGV failed, returncode =   6  3      3
RMM:   8    -0.676028361544E+03   -0.57642E-06   -0.16589E-05 22863   0.598E-03    0.237E-03
 num prob  num prob  num prob  num prob WARNING in EDDRMM: call to ZHEGV failed, returncode =   6  3      4
RMM:   9    -0.676028361973E+03   -0.42897E-06   -0.86903E-06 20279   0.443E-03
   9 F= -.67602836E+03 E0= -.67602836E+03  d E =-.312740E-01
 BRION: g(F)=  0.445E-02 g(S)=  0.728E-04
 BRIONS problems: POTIM should be increased
 retain N=  1 mean eig=11.01
 eig:  11.014
 bond charge predicted
       N       E                     dE             d eps       ncg     rms          rms(c)
DAV:   1    -0.676041651621E+03   -0.13290E-01   -0.24820E+00 21888   0.345E+00    0.439E-01
RMM:   2    -0.676044253045E+03   -0.26014E-02   -0.50268E-02 22777   0.574E-01    0.233E-01
RMM:   3    -0.676043170465E+03    0.10826E-02   -0.39252E-03 26953   0.182E-01    0.933E-02
RMM:   4    -0.676043074988E+03    0.95478E-04   -0.88092E-04 29359   0.533E-02    0.290E-02
RMM:   5    -0.676043083819E+03   -0.88313E-05   -0.13984E-04 30826   0.236E-02    0.138E-02
RMM:   6    -0.676043085894E+03   -0.20754E-05   -0.32190E-05 28270   0.758E-03    0.502E-03
WARNING in EDDRMM: call to ZHEGV failed, returncode =   6  3      4
WARNING in EDDRMM: call to ZHEGV failed, returncode =   6  3      4
RMM:   7    -0.676043086478E+03   -0.58355E-06   -0.13786E-05 21137   0.508E-03    0.199E-03
 num prob  num prob  num prob  num prob  num prob WARNING in EDDRMM: call to ZHEGV failed, returncode =   6  3      3
 num prob  num prob  num prob  num prob  num prob  num prob  num prob  num prob  num prob WARNING in EDDRMM: call to ZHEGV failed, returncode =   6  3      3
 num prob RMM:   8    -0.676043086448E+03    0.29511E-07   -0.35254E-06 17379   0.372E-03
  10 F= -.67604309E+03 E0= -.67604309E+03  d E =-.147245E-01
 BRION: g(F)=  0.324E-02 g(S)=  0.747E-06
 BRIONS problems: POTIM should be increased
 retain N=  1 mean eig=12.71
 eig:  12.708
 bond charge predicted
       N       E                     dE             d eps       ncg     rms          rms(c)
DAV:   1    -0.676054014012E+03   -0.10928E-01   -0.41272E+00 20736   0.451E+00    0.537E-01
RMM:   2    -0.676059058733E+03   -0.50447E-02   -0.88189E-02 22388   0.769E-01    0.283E-01
RMM:   3    -0.676057464302E+03    0.15944E-02   -0.69325E-03 26640   0.249E-01    0.119E-01
RMM:   4    -0.676057292838E+03    0.17146E-03   -0.15466E-03 29393   0.700E-02    0.368E-02
RMM:   5    -0.676057308062E+03   -0.15224E-04   -0.23340E-04 30599   0.313E-02    0.183E-02
WARNING in EDDRMM: call to ZHEGV failed, returncode =   6  3      3
RMM:   6    -0.676057311963E+03   -0.39017E-05   -0.54060E-05 31663   0.986E-03    0.679E-03
WARNING in EDDRMM: call to ZHEGV failed, returncode =   8  4      4
RMM:   7    -0.676057312943E+03   -0.97954E-06   -0.20543E-05 22970   0.631E-03    0.234E-03
 num prob  num prob  num prob  num prob  num prob  num prob  num prob  num prob  num prob  num prob  num prob  num prob  num prob  num prob  num prob  num prob  num prob  num prob  num prob WARNING in EDDRMM: call to ZHEGV failed, returncode =   6  3      3
 num prob  num prob RMM:   8    -0.676057313038E+03   -0.95119E-07   -0.48025E-06 18653   0.420E-03
  11 F= -.67605731E+03 E0= -.67605731E+03  d E =-.142266E-01
 BRION: g(F)=  0.171E-02 g(S)=  0.533E-04
 BRIONS problems: POTIM should be increased
 retain N=  1 mean eig=15.12
 eig:  15.121
 bond charge predicted
       N       E                     dE             d eps       ncg     rms          rms(c)
DAV:   1    -0.676060979810E+03   -0.36669E-02   -0.16892E+00 22896   0.293E+00    0.313E-01
RMM:   2    -0.676063464573E+03   -0.24848E-02   -0.38243E-02 22049   0.515E-01    0.160E-01
RMM:   3    -0.676062932654E+03    0.53192E-03   -0.28565E-03 26690   0.160E-01    0.764E-02
RMM:   4    -0.676062846096E+03    0.86558E-04   -0.56623E-04 28985   0.439E-02    0.231E-02
RMM:   5    -0.676062850527E+03   -0.44307E-05   -0.87298E-05 30115   0.193E-02    0.116E-02
WARNING in EDDRMM: call to ZHEGV failed, returncode =   6  3      4
RMM:   6    -0.676062851858E+03   -0.13316E-05   -0.20827E-05 27319   0.655E-03    0.423E-03
 num prob  num prob WARNING in EDDRMM: call to ZHEGV failed, returncode =   6  3      4
 num prob  num prob RMM:   7    -0.676062852294E+03   -0.43607E-06   -0.95718E-06 20225   0.455E-03
  12 F= -.67606285E+03 E0= -.67606285E+03  d E =-.553926E-02
 BRION: g(F)=  0.815E-03 g(S)=  0.106E-03
 BRIONS problems: POTIM should be increased
 retain N=  1 mean eig=21.89
 eig:  21.889
 bond charge predicted
       N       E                     dE             d eps       ncg     rms          rms(c)
DAV:   1    -0.676062930182E+03   -0.78324E-04   -0.10675E+00 26064   0.236E+00    0.219E-01
RMM:   2    -0.676064691436E+03   -0.17613E-02   -0.24676E-02 21750   0.418E-01    0.113E-01
RMM:   3    -0.676064446067E+03    0.24537E-03   -0.17718E-03 26278   0.123E-01    0.575E-02
RMM:   4    -0.676064385316E+03    0.60752E-04   -0.44214E-04 28099   0.383E-02    0.125E-02
RMM:   5    -0.676064387736E+03   -0.24208E-05   -0.58591E-05 27907   0.157E-02    0.923E-03
WARNING in EDDRMM: call to ZHEGV failed, returncode =   6  3      3
RMM:   6    -0.676064388769E+03   -0.10327E-05   -0.13495E-05 25124   0.561E-03    0.366E-03
RMM:   7    -0.676064388995E+03   -0.22561E-06   -0.51472E-06 18111   0.378E-03
  13 F= -.67606439E+03 E0= -.67606439E+03  d E =-.153670E-02
 BRION: g(F)=  0.335E-03 g(S)=  0.122E-03
 BRIONS problems: POTIM should be increased
 retain N=  1 mean eig=29.31
 eig:  29.310
 bond charge predicted
       N       E                     dE             d eps       ncg     rms          rms(c)
DAV:   1    -0.676064076128E+03    0.31264E-03   -0.15123E-01 28512   0.917E-01    0.686E-02
RMM:   2    -0.676064400945E+03   -0.32482E-03   -0.39744E-03 21346   0.169E-01    0.370E-02
RMM:   3    -0.676064382270E+03    0.18675E-04   -0.25420E-04 25531   0.506E-02    0.242E-02
RMM:   4    -0.676064375541E+03    0.67298E-05   -0.66269E-05 27769   0.148E-02    0.575E-03
RMM:   5    -0.676064376133E+03   -0.59287E-06   -0.11344E-05 22986   0.702E-03    0.354E-03
 num prob  num prob  num prob  num prob  num prob  num prob  num prob  num prob  num prob  num prob  num prob RMM:   6    -0.676064376146E+03   -0.12398E-07   -0.55077E-07 13796   0.326E-03
  14 F= -.67606438E+03 E0= -.67606438E+03  d E =0.128489E-04
 BRION: g(F)=  0.212E-03 g(S)=  0.932E-04 retain N=  1 mean eig= 3.40
 eig:   3.396
 bond charge predicted
       N       E                     dE             d eps       ncg     rms          rms(c)
DAV:   1    -0.676063876431E+03    0.49970E-03   -0.10189E-01 28512   0.775E-01    0.606E-02
RMM:   2    -0.676064123911E+03   -0.24748E-03   -0.29963E-03 21481   0.146E-01    0.350E-02
RMM:   3    -0.676064108638E+03    0.15273E-04   -0.18448E-04 24959   0.460E-02    0.211E-02
RMM:   4    -0.676064106667E+03    0.19711E-05   -0.55256E-05 29330   0.131E-02    0.568E-03
RMM:   5    -0.676064107290E+03   -0.62301E-06   -0.10812E-05 23614   0.613E-03    0.335E-03
 num prob  num prob  num prob  num prob  num prob  num prob  num prob  num prob  num prob  num prob  num prob  num prob  num prob  num prob RMM:   6    -0.676064107293E+03   -0.35943E-08   -0.47662E-07 14024   0.317E-03
  15 F= -.67606411E+03 E0= -.67606411E+03  d E =0.268853E-03
 BRION: g(F)=  0.183E-03 g(S)=  0.550E-04 retain N=  1 mean eig= 1.45
 eig:   1.453
 bond charge predicted
       N       E                     dE             d eps       ncg     rms          rms(c)
DAV:   1    -0.676064071320E+03    0.35970E-04   -0.19665E-02 28512   0.350E-01    0.405E-02
RMM:   2    -0.676064111421E+03   -0.40101E-04   -0.60307E-04 22334   0.659E-02    0.229E-02
RMM:   3    -0.676064103678E+03    0.77420E-05   -0.46010E-05 28376   0.204E-02    0.869E-03
RMM:   4    -0.676064103721E+03   -0.42884E-07   -0.11432E-05 28087   0.609E-03    0.267E-03
 num prob  num prob  num prob  num prob  num prob  num prob  num prob  num prob  num prob  num prob  num prob  num prob  num prob  num prob  num prob  num prob  num prob  num prob  num prob  num prob RMM:   5    -0.676064103738E+03   -0.16451E-07   -0.95611E-07 13980   0.320E-03
  16 F= -.67606410E+03 E0= -.67606410E+03  d E =0.355545E-05
 BRION: g(F)=  0.179E-03 g(S)=  0.322E-04 retain N=  1 mean eig= 4.39
 eig:   4.392
 bond charge predicted
       N       E                     dE             d eps       ncg     rms          rms(c)
DAV:   1    -0.676064164405E+03   -0.60683E-04   -0.38311E-02 28512   0.482E-01    0.615E-02
RMM:   2    -0.676064221497E+03   -0.57092E-04   -0.10422E-03 22078   0.880E-02    0.340E-02
RMM:   3    -0.676064202995E+03    0.18502E-04   -0.88022E-05 29122   0.275E-02    0.114E-02
WARNING in EDDRMM: call to ZHEGV failed, returncode =   8  4      3
RMM:   4    -0.676064202920E+03    0.75052E-07   -0.19757E-05 29720   0.795E-03    0.360E-03
 num prob  num prob  num prob  num prob  num prob RMM:   5    -0.676064203170E+03   -0.24955E-06   -0.35040E-06 16575   0.414E-03
  17 F= -.67606420E+03 E0= -.67606420E+03  d E =-.994319E-04
 BRION: g(F)=  0.179E-03 g(S)=  0.110E-04 retain N=  1 mean eig= 5.49
 eig:   5.489
 bond charge predicted
       N       E                     dE             d eps       ncg     rms          rms(c)
DAV:   1    -0.676064387599E+03   -0.18468E-03   -0.16606E-02 25920   0.301E-01    0.381E-02
RMM:   2    -0.676064407543E+03   -0.19943E-04   -0.38304E-04 22786   0.529E-02    0.205E-02
RMM:   3    -0.676064399813E+03    0.77292E-05   -0.34408E-05 28676   0.170E-02    0.753E-03
WARNING in EDDRMM: call to ZHEGV failed, returncode =   6  3      3
RMM:   4    -0.676064399538E+03    0.27506E-06   -0.72957E-06 23636   0.508E-03
  18 F= -.67606440E+03 E0= -.67606440E+03  d E =-.196369E-03
 BRION: g(F)=  0.167E-03 g(S)=  0.475E-05 retain N=  1 mean eig= 7.43
 eig:   7.428
 bond charge predicted
       N       E                     dE             d eps       ncg     rms          rms(c)
DAV:   1    -0.676064803953E+03   -0.40414E-03   -0.88575E-02 25056   0.674E-01    0.813E-02
RMM:   2    -0.676064902648E+03   -0.98695E-04   -0.18288E-03 22035   0.115E-01    0.434E-02
RMM:   3    -0.676064868840E+03    0.33808E-04   -0.16040E-04 28228   0.368E-02    0.175E-02
RMM:   4    -0.676064866040E+03    0.28002E-05   -0.31429E-05 29806   0.102E-02    0.539E-03
 num prob RMM:   5    -0.676064866533E+03   -0.49309E-06   -0.47501E-06 18349   0.479E-03
  19 F= -.67606487E+03 E0= -.67606487E+03  d E =-.466995E-03
 BRION: g(F)=  0.133E-03 g(S)=  0.275E-07
 BRIONS problems: POTIM should be increased
 retain N=  1 mean eig= 8.79
 eig:   8.786
 bond charge predicted
       N       E                     dE             d eps       ncg     rms          rms(c)
DAV:   1    -0.676065164712E+03   -0.29867E-03   -0.44051E-02 25488   0.459E-01    0.503E-02
RMM:   2    -0.676065218274E+03   -0.53561E-04   -0.86082E-04 22598   0.757E-02    0.262E-02
RMM:   3    -0.676065203992E+03    0.14282E-04   -0.65635E-05 27956   0.226E-02    0.120E-02
RMM:   4    -0.676065202333E+03    0.16591E-05   -0.14631E-05 27794   0.699E-03    0.325E-03
 num prob  num prob  num prob  num prob  num prob  num prob  num prob  num prob RMM:   5    -0.676065202466E+03   -0.13311E-06   -0.12018E-06 12821   0.350E-03
  20 F= -.67606520E+03 E0= -.67606520E+03  d E =-.335933E-03
 BRION: g(F)=  0.102E-03 g(S)=  0.568E-06
 BRIONS problems: POTIM should be increased
 retain N=  1 mean eig=12.00
 eig:  11.998
 bond charge predicted
       N       E                     dE             d eps       ncg     rms          rms(c)
DAV:   1    -0.676065537542E+03   -0.33521E-03   -0.15482E-01 23040   0.848E-01    0.873E-02
RMM:   2    -0.676065736456E+03   -0.19891E-03   -0.29761E-03 22418   0.139E-01    0.449E-02
RMM:   3    -0.676065693675E+03    0.42782E-04   -0.21869E-04 26635   0.436E-02    0.218E-02
RMM:   4    -0.676065687532E+03    0.61423E-05   -0.52685E-05 28000   0.127E-02    0.571E-03
RMM:   5    -0.676065687998E+03   -0.46546E-06   -0.62764E-06 20074   0.581E-03
  21 F= -.67606569E+03 E0= -.67606569E+03  d E =-.485532E-03
 BRION: g(F)=  0.537E-04 g(S)=  0.310E-05
 BRIONS problems: POTIM should be increased
 retain N=  1 mean eig=17.62
 eig:  17.617
 bond charge predicted
       N       E                     dE             d eps       ncg     rms          rms(c)
DAV:   1    -0.676065807274E+03   -0.11974E-03   -0.54470E-02 24336   0.503E-01    0.470E-02
RMM:   2    -0.676065887235E+03   -0.79962E-04   -0.10804E-03 22707   0.820E-02    0.239E-02
RMM:   3    -0.676065873011E+03    0.14224E-04   -0.68896E-05 26766   0.243E-02    0.126E-02
RMM:   4    -0.676065870922E+03    0.20894E-05   -0.16529E-05 26558   0.726E-03    0.338E-03
 num prob  num prob RMM:   5    -0.676065871072E+03   -0.15003E-06   -0.17530E-06 13119   0.375E-03
  22 F= -.67606587E+03 E0= -.67606587E+03  d E =-.183074E-03
 BRION: g(F)=  0.310E-04 g(S)=  0.334E-05
 BRIONS problems: POTIM should be increased
 retain N=  1 mean eig=34.86
 eig:  34.863
 bond charge predicted
       N       E                     dE             d eps       ncg     rms          rms(c)
DAV:   1    -0.676065889922E+03   -0.19000E-04   -0.49367E-02 26496   0.488E-01    0.408E-02
RMM:   2    -0.676065966923E+03   -0.77002E-04   -0.98813E-04 22360   0.797E-02    0.206E-02
RMM:   3    -0.676065956675E+03    0.10248E-04   -0.63426E-05 26338   0.235E-02    0.112E-02
RMM:   4    -0.676065955035E+03    0.16401E-05   -0.17064E-05 25341   0.731E-03    0.276E-03
 num prob RMM:   5    -0.676065955056E+03   -0.20831E-07   -0.14756E-06 12975   0.364E-03
  23 F= -.67606596E+03 E0= -.67606596E+03  d E =-.839838E-04
 BRION: g(F)=  0.178E-04 g(S)=  0.243E-05
 BRIONS problems: POTIM should be increased
 retain N=  1 mean eig=17.04
 eig:  17.040
 bond charge predicted
       N       E                     dE             d eps       ncg     rms          rms(c)
DAV:   1    -0.676065958427E+03   -0.33923E-05   -0.57977E-03 28512   0.179E-01    0.127E-02
RMM:   2    -0.676065970794E+03   -0.12366E-04   -0.14608E-04 21885   0.318E-02    0.633E-03
RMM:   3    -0.676065970072E+03    0.72150E-06   -0.92810E-06 20923   0.951E-03    0.377E-03
RMM:   4    -0.676065970002E+03    0.70111E-07   -0.23322E-06 13469   0.339E-03
  24 F= -.67606597E+03 E0= -.67606597E+03  d E =-.149463E-04
 BRION: g(F)=  0.132E-04 g(S)=  0.141E-05 retain N=  1 mean eig= 2.79
 eig:   2.786
 bond charge predicted
       N       E                     dE             d eps       ncg     rms          rms(c)
DAV:   1    -0.676065949869E+03    0.20203E-04   -0.88259E-03 28512   0.227E-01    0.157E-02
RMM:   2    -0.676065970563E+03   -0.20694E-04   -0.24354E-04 21795   0.412E-02    0.799E-03
RMM:   3    -0.676065969617E+03    0.94679E-06   -0.15238E-05 23045   0.123E-02    0.480E-03
RMM:   4    -0.676065969497E+03    0.11981E-06   -0.37498E-06 16455   0.394E-03
  25 F= -.67606597E+03 E0= -.67606597E+03  d E =0.505199E-06
 BRION: g(F)=  0.106E-04 g(S)=  0.366E-06 retain N=  1 mean eig= 1.05
 eig:   1.054
 bond charge predicted
       N       E                     dE             d eps       ncg     rms          rms(c)
DAV:   1    -0.676065975629E+03   -0.60126E-05   -0.77847E-04 28512   0.688E-02    0.472E-03
RMM:   2    -0.676065977372E+03   -0.17424E-05   -0.21907E-05 21722   0.125E-02    0.273E-03
RMM:   3    -0.676065977204E+03    0.16727E-06   -0.10550E-06 10722   0.356E-03    0.162E-03
RMM:   4    -0.676065977191E+03    0.13533E-07   -0.49615E-07 10672   0.213E-03
  26 F= -.67606598E+03 E0= -.67606598E+03  d E =-.769401E-05
 BRION: g(F)=  0.957E-05 g(S)=  0.209E-06 retain N=  1 mean eig= 2.83
 eig:   2.835
 bond charge predicted
       N       E                     dE             d eps       ncg     rms          rms(c)
DAV:   1    -0.676065979620E+03   -0.24158E-05   -0.88021E-03 28224   0.229E-01    0.154E-02
RMM:   2    -0.676065997485E+03   -0.17865E-04   -0.22187E-04 20826   0.413E-02    0.847E-03
RMM:   3    -0.676065996903E+03    0.58233E-06   -0.15251E-05 23225   0.122E-02    0.483E-03
RMM:   4    -0.676065996605E+03    0.29737E-06   -0.39476E-06 16523   0.385E-03
  27 F= -.67606600E+03 E0= -.67606600E+03  d E =-.194145E-04
 BRION: g(F)=  0.581E-05 g(S)=  0.923E-08 retain N=  1 mean eig= 3.62
 eig:   3.623
 reached required accuracy - stopping structural energy minimisation
