<?xml version="1.0" encoding="ISO-8859-1"?>
<modeling>
 <generator>
  <i name="program" type="string">vasp </i>
  <i name="version" type="string">5.4.4.18Apr17-6-g9f103f2a35  </i>
  <i name="subversion" type="string">(build Mar 05 2020 17:21:05) complex            parallel </i>
  <i name="platform" type="string">Linux justhpc1_p2018-05-16 </i>
  <i name="date" type="string">2024 04 10 </i>
  <i name="time" type="string">19:38:03 </i>
 </generator>
 <incar>
  <i type="string" name="SYSTEM"> Li(NbTa)O_3</i>
  <i type="int" name="ISTART">     0</i>
  <i type="string" name="PREC">accurate</i>
  <i type="string" name="ALGO">  Fast</i>
  <i name="AMIX">      0.40000000</i>
  <i name="AMIN">      0.10000000</i>
  <i type="int" name="ICHARG">     2</i>
  <i type="int" name="INIWAV">     1</i>
  <i type="int" name="NELM">  1000</i>
  <i type="int" name="NELMIN">     4</i>
  <i type="int" name="IBRION">     1</i>
  <i name="EDIFF">      0.00000100</i>
  <i name="EDIFFG">     -0.00500000</i>
  <i type="int" name="NSW">   200</i>
  <i type="int" name="ISIF">     4</i>
  <i name="ENCUT">    475.00000000</i>
  <i name="POTIM">      0.15000000</i>
  <i type="string" name="LREAL">    A</i>
  <i type="int" name="ISMEAR">    -5</i>
  <i name="SIGMA">      0.05000000</i>
  <i type="int" name="NWRITE">     0</i>
  <i type="logical" name="LWAVE"> F  </i>
  <i type="logical" name="LCHARG"> F  </i>
  <i type="logical" name="LVTOT"> F  </i>
  <i type="logical" name="LVHAR"> F  </i>
  <i type="logical" name="LELF"> F  </i>
  <v type="int" name="KPOINT_BSE">    -1     0     0     0</v>
  <i type="int" name="NELM">  1000</i>
  <i type="string" name="GGA"> PS</i>
 </incar>
 <structure name="primitive_cell" >
  <crystal>
   <varray name="basis" >
    <v>       4.95641153      -2.86005004       8.87423969 </v>
    <v>       0.00237969       5.72162724       8.87340953 </v>
    <v>      -4.95390284      -2.86134946       8.87242667 </v>
   </varray>
   <i name="volume">    754.71068888 </i>
   <varray name="rec_basis" >
    <v>       0.10090574      -0.05827282       0.03754760 </v>
    <v>      -0.00002215       0.11651818       0.03756464 </v>
    <v>      -0.10090421      -0.05824636       0.03758466 </v>
   </varray>
  </crystal>
  <varray name="positions" >
   <v>       0.13834752       0.13936271       0.13984335 </v>
   <v>       0.30515946       0.11079423      -0.06809337 </v>
   <v>       0.11018018      -0.06879723       0.30647725 </v>
   <v>      -0.06905013       0.30643726       0.10970186 </v>
   <v>       0.05623360       0.18120304       0.36059596 </v>
   <v>       0.18067803       0.36043515       0.05635112 </v>
   <v>       0.36055215       0.05618073       0.18135900 </v>
   <v>       0.24862253       0.24992729       0.24762435 </v>
   <v>      -0.00061676       0.00003493       0.49763958 </v>
   <v>      -0.00250010       0.49794372       0.00086033 </v>
   <v>       0.49988249      -0.00261528       0.00090131 </v>
   <v>      -0.19337261       0.10979363       0.43135599 </v>
   <v>       0.43096027      -0.19329050       0.10983535 </v>
   <v>       0.11066152       0.43074915      -0.19460356 </v>
   <v>       0.25168038       0.24891337      -0.25040483 </v>
   <v>      -0.25269028       0.24776208       0.24918815 </v>
   <v>       0.24806756      -0.25193469       0.24849505 </v>
   <v>      -0.13900432       0.05588109       0.18065345 </v>
   <v>       0.18040413      -0.13909628       0.05629587 </v>
   <v>       0.05540035       0.18155956      -0.13965962 </v>
   <v>      -0.10895576       0.39188824      -0.11006009 </v>
   <v>       0.39066873      -0.10877522      -0.10982588 </v>
   <v>      -0.11047756      -0.10980384       0.39154151 </v>
   <v>       0.38998511      -0.10977024       0.39046082 </v>
   <v>      -0.10918121       0.39199278       0.39127564 </v>
   <v>       0.39173469       0.39088444      -0.10940012 </v>
   <v>      -0.00040763       0.00150112      -0.00324828 </v>
   <v>      -0.13992542      -0.44365171       0.18046819 </v>
   <v>       0.18050111      -0.13926661      -0.44374241 </v>
   <v>      -0.44374507       0.18016866      -0.13917796 </v>
   <v>       0.10933811       0.43208088       0.30572184 </v>
   <v>       0.30616879       0.11038237       0.43144631 </v>
   <v>       0.43164615       0.30579781       0.11007695 </v>
   <v>      -0.06861027      -0.19460936      -0.38915746 </v>
   <v>      -0.19415364      -0.38916703      -0.06990609 </v>
   <v>      -0.38975637      -0.06865989      -0.19428568 </v>
   <v>       0.35943918       0.05639020      -0.31796545 </v>
   <v>      -0.31905839       0.36072792       0.05606070 </v>
   <v>       0.05604537      -0.31923144       0.36081137 </v>
   <v>      -0.38984081       0.43137998       0.30635721 </v>
   <v>       0.43176800       0.30520898      -0.38895871 </v>
   <v>       0.30631393      -0.39036548       0.43142758 </v>
   <v>      -0.13939540       0.05601788      -0.31945939 </v>
   <v>       0.05642617      -0.32016891      -0.13927708 </v>
   <v>      -0.31892800      -0.13953226       0.05575260 </v>
   <v>      -0.44445923      -0.31816567       0.36007734 </v>
   <v>      -0.31943661       0.36084158      -0.44373941 </v>
   <v>       0.36082901      -0.44378709      -0.31960064 </v>
   <v>      -0.35955392       0.13979598      -0.36104116 </v>
   <v>      -0.36012932      -0.35949036       0.14005521 </v>
   <v>       0.14027342      -0.36143308      -0.36057710 </v>
   <v>      -0.44331040       0.18089021       0.36049958 </v>
   <v>       0.36061507      -0.44381848       0.18081868 </v>
   <v>       0.18159346       0.36067916      -0.44443328 </v>
   <v>      -0.06871227       0.30623948      -0.39020555 </v>
   <v>       0.30592914      -0.39026941      -0.06842438 </v>
   <v>      -0.38932248      -0.06834703       0.30547765 </v>
   <v>       0.14028321       0.14032414      -0.35907876 </v>
   <v>      -0.36031050       0.14081636       0.13851063 </v>
   <v>       0.14005761      -0.36085585       0.13990376 </v>
   <v>      -0.19376884       0.10929440      -0.06852055 </v>
   <v>       0.10974163      -0.06923313      -0.19337096 </v>
   <v>      -0.06863886      -0.19507418       0.11095065 </v>
   <v>      -0.31902069      -0.14027494      -0.44344507 </v>
   <v>      -0.13940492      -0.44418373      -0.31949283 </v>
   <v>      -0.44443032      -0.31917978      -0.13909459 </v>
   <v>      -0.19496216      -0.38925698       0.43111591 </v>
   <v>       0.43105925      -0.19361902      -0.39007314 </v>
   <v>      -0.38991387       0.43101265      -0.19363503 </v>
   <v>       0.24752603      -0.25254119      -0.25065840 </v>
   <v>      -0.25165012       0.24827406      -0.25167126 </v>
   <v>       0.49985523      -0.49870242       0.49655071 </v>
   <v>      -0.24902685      -0.25057531       0.24984287 </v>
   <v>       0.49682629      -0.00232810      -0.49984566 </v>
   <v>       0.00052440       0.49715140      -0.49911933 </v>
   <v>       0.49954620      -0.49996032      -0.00214243 </v>
   <v>      -0.25059786      -0.24904122      -0.25197652 </v>
   <v>       0.39146324       0.38999630       0.39085144 </v>
   <v>      -0.10896892      -0.10923924      -0.10865368 </v>
   <v>      -0.35904566      -0.35991442      -0.35855301 </v>
  </varray>
 </structure>
 <varray name="primitive_index" >
  <v type="int" >        1 </v>
  <v type="int" >       38 </v>
  <v type="int" >       43 </v>
  <v type="int" >       54 </v>
  <v type="int" >       27 </v>
  <v type="int" >       29 </v>
  <v type="int" >       28 </v>
  <v type="int" >       75 </v>
  <v type="int" >       18 </v>
  <v type="int" >       20 </v>
  <v type="int" >       22 </v>
  <v type="int" >       56 </v>
  <v type="int" >       42 </v>
  <v type="int" >       37 </v>
  <v type="int" >       19 </v>
  <v type="int" >       78 </v>
  <v type="int" >       76 </v>
  <v type="int" >       52 </v>
  <v type="int" >       41 </v>
  <v type="int" >       33 </v>
  <v type="int" >       12 </v>
  <v type="int" >        8 </v>
  <v type="int" >       14 </v>
  <v type="int" >        6 </v>
  <v type="int" >       10 </v>
  <v type="int" >        4 </v>
  <v type="int" >       17 </v>
  <v type="int" >       64 </v>
  <v type="int" >       47 </v>
  <v type="int" >       57 </v>
  <v type="int" >       31 </v>
  <v type="int" >       32 </v>
  <v type="int" >       30 </v>
  <v type="int" >       72 </v>
  <v type="int" >       74 </v>
  <v type="int" >       73 </v>
  <v type="int" >       34 </v>
  <v type="int" >       53 </v>
  <v type="int" >       39 </v>
  <v type="int" >       55 </v>
  <v type="int" >       36 </v>
  <v type="int" >       44 </v>
  <v type="int" >       58 </v>
  <v type="int" >       45 </v>
  <v type="int" >       65 </v>
  <v type="int" >       63 </v>
  <v type="int" >       59 </v>
  <v type="int" >       46 </v>
  <v type="int" >       11 </v>
  <v type="int" >       13 </v>
  <v type="int" >        7 </v>
  <v type="int" >       51 </v>
  <v type="int" >       40 </v>
  <v type="int" >       35 </v>
  <v type="int" >       60 </v>
  <v type="int" >       50 </v>
  <v type="int" >       67 </v>
  <v type="int" >        3 </v>
  <v type="int" >        9 </v>
  <v type="int" >        5 </v>
  <v type="int" >       62 </v>
  <v type="int" >       49 </v>
  <v type="int" >       66 </v>
  <v type="int" >       71 </v>
  <v type="int" >       70 </v>
  <v type="int" >       69 </v>
  <v type="int" >       68 </v>
  <v type="int" >       48 </v>
  <v type="int" >       61 </v>
  <v type="int" >       77 </v>
  <v type="int" >       80 </v>
  <v type="int" >       25 </v>
  <v type="int" >       24 </v>
  <v type="int" >       79 </v>
  <v type="int" >       21 </v>
  <v type="int" >       23 </v>
  <v type="int" >       26 </v>
  <v type="int" >        2 </v>
  <v type="int" >       16 </v>
  <v type="int" >       15 </v>
 </varray>
 <kpoints>
  <generation param="Gamma">
   <v type="int" name="divisions">       4        4        4 </v>
   <v name="usershift">      0.00000000       0.00000000       0.00000000 </v>
   <v name="genvec1">      0.25000000       0.00000000       0.00000000 </v>
   <v name="genvec2">      0.00000000       0.25000000       0.00000000 </v>
   <v name="genvec3">      0.00000000       0.00000000       0.25000000 </v>
   <v name="shift">      0.00000000       0.00000000       0.00000000 </v>
  </generation>
  <varray name="kpointlist" >
   <v>       0.00000000       0.00000000       0.00000000 </v>
   <v>       0.25000000      -0.00000000      -0.00000000 </v>
   <v>       0.50000000      -0.00000000      -0.00000000 </v>
   <v>       0.00000000       0.25000000      -0.00000000 </v>
   <v>       0.25000000       0.25000000      -0.00000000 </v>
   <v>       0.50000000       0.25000000      -0.00000000 </v>
   <v>      -0.25000000       0.25000000      -0.00000000 </v>
   <v>       0.00000000       0.50000000      -0.00000000 </v>
   <v>       0.25000000       0.50000000      -0.00000000 </v>
   <v>       0.50000000       0.50000000      -0.00000000 </v>
   <v>       0.00000000      -0.00000000       0.25000000 </v>
   <v>       0.25000000      -0.00000000       0.25000000 </v>
   <v>       0.50000000      -0.00000000       0.25000000 </v>
   <v>      -0.25000000      -0.00000000       0.25000000 </v>
   <v>       0.00000000       0.25000000       0.25000000 </v>
   <v>       0.25000000       0.25000000       0.25000000 </v>
   <v>       0.50000000       0.25000000       0.25000000 </v>
   <v>      -0.25000000       0.25000000       0.25000000 </v>
   <v>       0.00000000       0.50000000       0.25000000 </v>
   <v>       0.25000000       0.50000000       0.25000000 </v>
   <v>       0.50000000       0.50000000       0.25000000 </v>
   <v>      -0.25000000       0.50000000       0.25000000 </v>
   <v>      -0.00000000      -0.25000000       0.25000000 </v>
   <v>       0.25000000      -0.25000000       0.25000000 </v>
   <v>       0.50000000      -0.25000000       0.25000000 </v>
   <v>      -0.25000000      -0.25000000       0.25000000 </v>
   <v>       0.00000000      -0.00000000       0.50000000 </v>
   <v>       0.25000000      -0.00000000       0.50000000 </v>
   <v>       0.50000000      -0.00000000       0.50000000 </v>
   <v>      -0.00000000       0.25000000       0.50000000 </v>
   <v>       0.25000000       0.25000000       0.50000000 </v>
   <v>       0.50000000       0.25000000       0.50000000 </v>
   <v>      -0.25000000       0.25000000       0.50000000 </v>
   <v>       0.00000000       0.50000000       0.50000000 </v>
   <v>       0.25000000       0.50000000       0.50000000 </v>
   <v>       0.50000000       0.50000000       0.50000000 </v>
  </varray>
  <varray name="weights" >
   <v>       0.01562500 </v>
   <v>       0.03125000 </v>
   <v>       0.01562500 </v>
   <v>       0.03125000 </v>
   <v>       0.03125000 </v>
   <v>       0.03125000 </v>
   <v>       0.03125000 </v>
   <v>       0.01562500 </v>
   <v>       0.03125000 </v>
   <v>       0.01562500 </v>
   <v>       0.03125000 </v>
   <v>       0.03125000 </v>
   <v>       0.03125000 </v>
   <v>       0.03125000 </v>
   <v>       0.03125000 </v>
   <v>       0.03125000 </v>
   <v>       0.03125000 </v>
   <v>       0.03125000 </v>
   <v>       0.03125000 </v>
   <v>       0.03125000 </v>
   <v>       0.03125000 </v>
   <v>       0.03125000 </v>
   <v>       0.03125000 </v>
   <v>       0.03125000 </v>
   <v>       0.03125000 </v>
   <v>       0.03125000 </v>
   <v>       0.01562500 </v>
   <v>       0.03125000 </v>
   <v>       0.01562500 </v>
   <v>       0.03125000 </v>
   <v>       0.03125000 </v>
   <v>       0.03125000 </v>
   <v>       0.03125000 </v>
   <v>       0.01562500 </v>
   <v>       0.03125000 </v>
   <v>       0.01562500 </v>
  </varray>
  <varray name="tetrahedronlist"  type="int" >
   <v type="int" >        2        1        4        5       16 </v>
   <v type="int" >        2        1        2        5       16 </v>
   <v type="int" >        2        1        2       12       16 </v>
   <v type="int" >        2        1        4       15       16 </v>
   <v type="int" >        2        1       11       15       16 </v>
   <v type="int" >        2        1       11       12       16 </v>
   <v type="int" >        2        2        5        6       17 </v>
   <v type="int" >        2        2        3        6       17 </v>
   <v type="int" >        2        2        3       13       17 </v>
   <v type="int" >        2        2        5       16       17 </v>
   <v type="int" >        2        2       12       16       17 </v>
   <v type="int" >        2        2       12       13       17 </v>
   <v type="int" >        2        3        6        7       18 </v>
   <v type="int" >        2        2        3        7       18 </v>
   <v type="int" >        2        2        3       14       18 </v>
   <v type="int" >        2        3        6       17       18 </v>
   <v type="int" >        2        3       13       17       18 </v>
   <v type="int" >        2        3       13       14       18 </v>
   <v type="int" >        2        2        4        7       15 </v>
   <v type="int" >        2        1        2        4       15 </v>
   <v type="int" >        2        1        2       11       15 </v>
   <v type="int" >        2        2        7       15       18 </v>
   <v type="int" >        2        2       14       15       18 </v>
   <v type="int" >        2        2       11       14       15 </v>
   <v type="int" >        2        4        8        9       20 </v>
   <v type="int" >        2        4        5        9       20 </v>
   <v type="int" >        2        4        5       16       20 </v>
   <v type="int" >        2        4        8       19       20 </v>
   <v type="int" >        2        4       15       19       20 </v>
   <v type="int" >        2        4       15       16       20 </v>
   <v type="int" >        2        5        9       10       21 </v>
   <v type="int" >        2        5        6       10       21 </v>
   <v type="int" >        2        5        6       17       21 </v>
   <v type="int" >        2        5        9       20       21 </v>
   <v type="int" >        2        5       16       20       21 </v>
   <v type="int" >        2        5       16       17       21 </v>
   <v type="int" >        2        6        9       10       22 </v>
   <v type="int" >        2        6        7        9       22 </v>
   <v type="int" >        2        6        7       18       22 </v>
   <v type="int" >        2        6       10       21       22 </v>
   <v type="int" >        2        6       17       21       22 </v>
   <v type="int" >        2        6       17       18       22 </v>
   <v type="int" >        2        7        8        9       19 </v>
   <v type="int" >        2        4        7        8       19 </v>
   <v type="int" >        2        4        7       15       19 </v>
   <v type="int" >        2        7        9       19       22 </v>
   <v type="int" >        2        7       18       19       22 </v>
   <v type="int" >        2        7       15       18       19 </v>
   <v type="int" >        2        4        7        8       24 </v>
   <v type="int" >        2        7        8        9       24 </v>
   <v type="int" >        2        8        9       20       24 </v>
   <v type="int" >        2        4        8       23       24 </v>
   <v type="int" >        2        8       19       23       24 </v>
   <v type="int" >        2        8       19       20       24 </v>
   <v type="int" >        2        6        7        9       25 </v>
   <v type="int" >        2        6        9       10       25 </v>
   <v type="int" >        2        9       10       21       25 </v>
   <v type="int" >        2        7        9       24       25 </v>
   <v type="int" >        2        9       20       24       25 </v>
   <v type="int" >        2        9       20       21       25 </v>
   <v type="int" >        2        5        6       10       26 </v>
   <v type="int" >        2        5        9       10       26 </v>
   <v type="int" >        2        9       10       22       26 </v>
   <v type="int" >        2        6       10       25       26 </v>
   <v type="int" >        2       10       21       25       26 </v>
   <v type="int" >        2       10       21       22       26 </v>
   <v type="int" >        2        4        5        9       23 </v>
   <v type="int" >        2        4        8        9       23 </v>
   <v type="int" >        2        8        9       19       23 </v>
   <v type="int" >        2        5        9       23       26 </v>
   <v type="int" >        2        9       22       23       26 </v>
   <v type="int" >        2        9       19       22       23 </v>
   <v type="int" >        2        1        2        4       12 </v>
   <v type="int" >        2        2        4        7       12 </v>
   <v type="int" >        2        4        7       12       24 </v>
   <v type="int" >        2        1        4       11       12 </v>
   <v type="int" >        2        4       11       12       23 </v>
   <v type="int" >        2        4       12       23       24 </v>
   <v type="int" >        2        2        3        7       13 </v>
   <v type="int" >        2        3        6        7       13 </v>
   <v type="int" >        2        6        7       13       25 </v>
   <v type="int" >        2        2        7       12       13 </v>
   <v type="int" >        2        7       12       13       24 </v>
   <v type="int" >        2        7       13       24       25 </v>
   <v type="int" >        2        2        3        6       14 </v>
   <v type="int" >        2        2        5        6       14 </v>
   <v type="int" >        2        5        6       14       26 </v>
   <v type="int" >        2        3        6       13       14 </v>
   <v type="int" >        2        6       13       14       25 </v>
   <v type="int" >        2        6       14       25       26 </v>
   <v type="int" >        2        1        2        5       11 </v>
   <v type="int" >        2        1        4        5       11 </v>
   <v type="int" >        2        4        5       11       23 </v>
   <v type="int" >        2        2        5       11       14 </v>
   <v type="int" >        2        5       11       14       26 </v>
   <v type="int" >        2        5       11       23       26 </v>
   <v type="int" >        2       11       15       16       31 </v>
   <v type="int" >        2       11       12       16       31 </v>
   <v type="int" >        2       11       12       28       31 </v>
   <v type="int" >        2       11       15       30       31 </v>
   <v type="int" >        2       11       27       30       31 </v>
   <v type="int" >        2       11       27       28       31 </v>
   <v type="int" >        2       12       16       17       32 </v>
   <v type="int" >        2       12       13       17       32 </v>
   <v type="int" >        2       12       13       29       32 </v>
   <v type="int" >        2       12       16       31       32 </v>
   <v type="int" >        2       12       28       31       32 </v>
   <v type="int" >        2       12       28       29       32 </v>
   <v type="int" >        2       13       17       18       33 </v>
   <v type="int" >        2       13       14       18       33 </v>
   <v type="int" >        2       13       14       28       33 </v>
   <v type="int" >        2       13       17       32       33 </v>
   <v type="int" >        2       13       29       32       33 </v>
   <v type="int" >        2       13       28       29       33 </v>
   <v type="int" >        2       14       15       18       30 </v>
   <v type="int" >        2       11       14       15       30 </v>
   <v type="int" >        2       11       14       27       30 </v>
   <v type="int" >        2       14       18       30       33 </v>
   <v type="int" >        2       14       28       30       33 </v>
   <v type="int" >        2       14       27       28       30 </v>
   <v type="int" >        2       15       19       20       35 </v>
   <v type="int" >        2       15       16       20       35 </v>
   <v type="int" >        2       15       16       31       35 </v>
   <v type="int" >        2       15       19       34       35 </v>
   <v type="int" >        2       15       30       34       35 </v>
   <v type="int" >        2       15       30       31       35 </v>
   <v type="int" >        2       16       20       21       36 </v>
   <v type="int" >        2       16       17       21       36 </v>
   <v type="int" >        2       16       17       32       36 </v>
   <v type="int" >        2       16       20       35       36 </v>
   <v type="int" >        2       16       31       35       36 </v>
   <v type="int" >        2       16       31       32       36 </v>
   <v type="int" >        2       17       21       22       35 </v>
   <v type="int" >        2       17       18       22       35 </v>
   <v type="int" >        2       17       18       33       35 </v>
   <v type="int" >        2       17       21       35       36 </v>
   <v type="int" >        2       17       32       35       36 </v>
   <v type="int" >        2       17       32       33       35 </v>
   <v type="int" >        2       18       19       22       34 </v>
   <v type="int" >        2       15       18       19       34 </v>
   <v type="int" >        2       15       18       30       34 </v>
   <v type="int" >        2       18       22       34       35 </v>
   <v type="int" >        2       18       33       34       35 </v>
   <v type="int" >        2       18       30       33       34 </v>
   <v type="int" >        2       19       23       24       33 </v>
   <v type="int" >        2       19       20       24       33 </v>
   <v type="int" >        2       19       20       33       35 </v>
   <v type="int" >        2       19       23       30       33 </v>
   <v type="int" >        2       19       30       33       34 </v>
   <v type="int" >        2       19       33       34       35 </v>
   <v type="int" >        2       20       24       25       32 </v>
   <v type="int" >        2       20       21       25       32 </v>
   <v type="int" >        2       20       21       32       36 </v>
   <v type="int" >        2       20       24       32       33 </v>
   <v type="int" >        2       20       32       33       35 </v>
   <v type="int" >        2       20       32       35       36 </v>
   <v type="int" >        2       21       25       26       31 </v>
   <v type="int" >        2       21       22       26       31 </v>
   <v type="int" >        2       21       22       31       35 </v>
   <v type="int" >        2       21       25       31       32 </v>
   <v type="int" >        2       21       31       32       36 </v>
   <v type="int" >        2       21       31       35       36 </v>
   <v type="int" >        2       22       23       26       30 </v>
   <v type="int" >        2       19       22       23       30 </v>
   <v type="int" >        2       19       22       30       34 </v>
   <v type="int" >        2       22       26       30       31 </v>
   <v type="int" >        2       22       30       31       35 </v>
   <v type="int" >        2       22       30       34       35 </v>
   <v type="int" >        2       11       12       23       28 </v>
   <v type="int" >        2       12       23       24       28 </v>
   <v type="int" >        2       23       24       28       33 </v>
   <v type="int" >        2       11       23       27       28 </v>
   <v type="int" >        2       23       27       28       30 </v>
   <v type="int" >        2       23       28       30       33 </v>
   <v type="int" >        2       12       13       24       29 </v>
   <v type="int" >        2       13       24       25       29 </v>
   <v type="int" >        2       24       25       29       32 </v>
   <v type="int" >        2       12       24       28       29 </v>
   <v type="int" >        2       24       28       29       33 </v>
   <v type="int" >        2       24       29       32       33 </v>
   <v type="int" >        2       13       14       25       28 </v>
   <v type="int" >        2       14       25       26       28 </v>
   <v type="int" >        2       25       26       28       31 </v>
   <v type="int" >        2       13       25       28       29 </v>
   <v type="int" >        2       25       28       29       32 </v>
   <v type="int" >        2       25       28       31       32 </v>
   <v type="int" >        2       11       14       26       27 </v>
   <v type="int" >        2       11       23       26       27 </v>
   <v type="int" >        2       23       26       27       30 </v>
   <v type="int" >        2       14       26       27       28 </v>
   <v type="int" >        2       26       27       28       31 </v>
   <v type="int" >        2       26       27       30       31 </v>
  </varray>
  <i name="volumeweight">      0.00260417 </i>
 </kpoints>
 <parameters>
  <separator name="general" >
   <i type="string" name="SYSTEM">Li(NbTa)O_3</i>
   <i type="logical" name="LCOMPAT"> F  </i>
  </separator>
  <separator name="electronic" >
   <i type="string" name="PREC">accura</i>
   <i name="ENMAX">    475.00000000</i>
   <i name="ENAUG">    605.39200000</i>
   <i name="EDIFF">      0.00000100</i>
   <i type="int" name="IALGO">    68</i>
   <i type="int" name="IWAVPR">    11</i>
   <i type="int" name="NBANDS">   288</i>
   <i name="NELECT">    464.00000000</i>
   <i type="int" name="TURBO">     0</i>
   <i type="int" name="IRESTART">     0</i>
   <i type="int" name="NREBOOT">     0</i>
   <i type="int" name="NMIN">     0</i>
   <i name="EREF">      0.00000000</i>
   <separator name="electronic smearing" >
    <i type="int" name="ISMEAR">    -5</i>
    <i name="SIGMA">      0.05000000</i>
    <i name="KSPACING">      0.50000000</i>
    <i type="logical" name="KGAMMA"> T  </i>
   </separator>
   <separator name="electronic projectors" >
    <i type="logical" name="LREAL"> T  </i>
    <v name="ROPT">     -0.00025000     -0.00025000     -0.00025000     -0.00025000</v>
    <i type="int" name="LMAXPAW">  -100</i>
    <i type="int" name="LMAXMIX">     2</i>
    <i type="logical" name="NLSPLINE"> F  </i>
   </separator>
   <separator name="electronic startup" >
    <i type="int" name="ISTART">     0</i>
    <i type="int" name="ICHARG">     2</i>
    <i type="int" name="INIWAV">     1</i>
   </separator>
   <separator name="electronic spin" >
    <i type="int" name="ISPIN">     1</i>
    <i type="logical" name="LNONCOLLINEAR"> F  </i>
    <v name="MAGMOM">      1.00000000      1.00000000      1.00000000      1.00000000      1.00000000      1.00000000      1.00000000      1.00000000      1.00000000      1.00000000      1.00000000      1.00000000      1.00000000      1.00000000      1.00000000      1.00000000      1.00000000      1.00000000      1.00000000      1.00000000
      1.00000000      1.00000000      1.00000000      1.00000000      1.00000000      1.00000000      1.00000000      1.00000000      1.00000000      1.00000000      1.00000000      1.00000000      1.00000000      1.00000000      1.00000000      1.00000000      1.00000000      1.00000000      1.00000000      1.00000000
      1.00000000      1.00000000      1.00000000      1.00000000      1.00000000      1.00000000      1.00000000      1.00000000      1.00000000      1.00000000      1.00000000      1.00000000      1.00000000      1.00000000      1.00000000      1.00000000      1.00000000      1.00000000      1.00000000      1.00000000
      1.00000000      1.00000000      1.00000000      1.00000000      1.00000000      1.00000000      1.00000000      1.00000000      1.00000000      1.00000000      1.00000000      1.00000000      1.00000000      1.00000000      1.00000000      1.00000000      1.00000000      1.00000000      1.00000000      1.00000000
</v>
    <i name="NUPDOWN">     -1.00000000</i>
    <i type="logical" name="LSORBIT"> F  </i>
    <v name="SAXIS">      0.00000000      0.00000000      1.00000000</v>
    <i type="logical" name="LSPIRAL"> F  </i>
    <v name="QSPIRAL">      0.00000000      0.00000000      0.00000000</v>
    <i type="logical" name="LZEROZ"> F  </i>
   </separator>
   <separator name="electronic exchange-correlation" >
    <i type="logical" name="LASPH"> F  </i>
    <i type="logical" name="LMETAGGA"> F  </i>
   </separator>
   <separator name="electronic convergence" >
    <i type="int" name="NELM">  1000</i>
    <i type="int" name="NELMDL">    -5</i>
    <i type="int" name="NELMIN">     4</i>
    <i name="ENINI">    475.00000000</i>
    <separator name="electronic convergence detail" >
     <i type="logical" name="LDIAG"> T  </i>
     <i type="logical" name="LSUBROT"> F  </i>
     <i name="WEIMIN">      0.00100000</i>
     <i name="EBREAK">      0.00000000</i>
     <i name="DEPER">      0.30000000</i>
     <i type="int" name="NRMM">     4</i>
     <i name="TIME">      0.40000000</i>
    </separator>
   </separator>
   <separator name="electronic mixer" >
    <i name="AMIX">      0.40000000</i>
    <i name="BMIX">      1.00000000</i>
    <i name="AMIN">      0.10000000</i>
    <i name="AMIX_MAG">      1.60000000</i>
    <i name="BMIX_MAG">      1.00000000</i>
    <separator name="electronic mixer details" >
     <i type="int" name="IMIX">     4</i>
     <i type="logical" name="MIXFIRST"> F  </i>
     <i type="int" name="MAXMIX">   -45</i>
     <i name="WC">    100.00000000</i>
     <i type="int" name="INIMIX">     1</i>
     <i type="int" name="MIXPRE">     1</i>
     <i type="int" name="MREMOVE">     5</i>
    </separator>
   </separator>
   <separator name="electronic dipolcorrection" >
    <i type="logical" name="LDIPOL"> F  </i>
    <i type="logical" name="LMONO"> F  </i>
    <i type="int" name="IDIPOL">     0</i>
    <i name="EPSILON">      1.00000000</i>
    <v name="DIPOL">   -100.00000000   -100.00000000   -100.00000000</v>
    <i name="EFIELD">      0.00000000</i>
   </separator>
  </separator>
  <separator name="grids" >
   <i type="int" name="NGX">    80</i>
   <i type="int" name="NGY">    80</i>
   <i type="int" name="NGZ">    80</i>
   <i type="int" name="NGXF">   160</i>
   <i type="int" name="NGYF">   160</i>
   <i type="int" name="NGZF">   160</i>
   <i type="logical" name="ADDGRID"> F  </i>
  </separator>
  <separator name="ionic" >
   <i type="int" name="NSW">   200</i>
   <i type="int" name="IBRION">     1</i>
   <i type="int" name="MDALGO">     0</i>
   <i type="int" name="ISIF">     4</i>
   <i name="PSTRESS">      0.00000000</i>
   <i name="EDIFFG">     -0.00500000</i>
   <i type="int" name="NFREE">     0</i>
   <i name="POTIM">      0.15000000</i>
   <i name="SMASS">     -3.00000000</i>
   <i name="SCALEE">      1.00000000</i>
  </separator>
  <separator name="ionic md" >
   <i name="TEBEG">      0.00010000</i>
   <i name="TEEND">      0.00010000</i>
   <i type="int" name="NBLOCK">     1</i>
   <i type="int" name="KBLOCK">   200</i>
   <i type="int" name="NPACO">   256</i>
   <i name="APACO">     16.00000000</i>
  </separator>
  <separator name="symmetry" >
   <i type="int" name="ISYM">     2</i>
   <i name="SYMPREC">      0.00001000</i>
  </separator>
  <separator name="dos" >
   <i type="int" name="LORBIT">     0</i>
   <v name="RWIGS">     -1.00000000     -1.00000000     -1.00000000     -1.00000000</v>
   <i type="int" name="NEDOS">   301</i>
   <i name="EMIN">     10.00000000</i>
   <i name="EMAX">    -10.00000000</i>
   <i name="EFERMI">      0.00000000</i>
  </separator>
  <separator name="writing" >
   <i type="int" name="NWRITE">     0</i>
   <i type="logical" name="LWAVE"> F  </i>
   <i type="logical" name="LDOWNSAMPLE"> F  </i>
   <i type="logical" name="LCHARG"> F  </i>
   <i type="logical" name="LPARD"> F  </i>
   <i type="logical" name="LVTOT"> F  </i>
   <i type="logical" name="LVHAR"> F  </i>
   <i type="logical" name="LELF"> F  </i>
   <i type="logical" name="LOPTICS"> F  </i>
   <v name="STM">      0.00000000      0.00000000      0.00000000      0.00000000      0.00000000      0.00000000      0.00000000</v>
  </separator>
  <separator name="performance" >
   <i type="int" name="NPAR">    72</i>
   <i type="int" name="NSIM">     4</i>
   <i type="int" name="NBLK">    -1</i>
   <i type="logical" name="LPLANE"> T  </i>
   <i type="logical" name="LSCALAPACK"> F  </i>
   <i type="logical" name="LSCAAWARE"> F  </i>
   <i type="logical" name="LSCALU"> F  </i>
   <i type="logical" name="LASYNC"> F  </i>
   <i type="logical" name="LORBITALREAL"> F  </i>
  </separator>
  <separator name="miscellaneous" >
   <i type="int" name="IDIOT">     3</i>
   <i type="int" name="ISPECIAL">     0</i>
   <i type="logical" name="LMUSIC"> F  </i>
   <v name="POMASS">      7.01000000     92.91000000     16.00000000    180.94800000</v>
   <v name="DARWINR">      0.00000000      0.00000000      0.00000000      0.00000000</v>
   <v name="DARWINV">      1.00000000      1.00000000      1.00000000      1.00000000</v>
   <i type="logical" name="LCORR"> T  </i>
  </separator>
  <i type="logical" name="GGA_COMPAT"> T  </i>
  <i type="logical" name="LBERRY"> F  </i>
  <i type="int" name="ICORELEVEL">     0</i>
  <i type="logical" name="LDAU"> F  </i>
  <i type="int" name="I_CONSTRAINED_M">     0</i>
  <separator name="electronic exchange-correlation" >
   <i type="string" name="GGA">PS</i>
   <i type="int" name="VOSKOWN">     0</i>
   <i type="logical" name="LHFCALC"> F  </i>
   <i type="string" name="PRECFOCK"></i>
   <i type="logical" name="LSYMGRAD"> F  </i>
   <i type="logical" name="LHFONE"> F  </i>
   <i type="logical" name="LRHFCALC"> F  </i>
   <i type="logical" name="LTHOMAS"> F  </i>
   <i type="logical" name="LMODELHF"> F  </i>
   <i name="ENCUT4O">     -1.00000000</i>
   <i type="int" name="EXXOEP">     0</i>
   <i type="int" name="FOURORBIT">     0</i>
   <i name="AEXX">      0.00000000</i>
   <i name="HFALPHA">      0.00000000</i>
   <i name="MCALPHA">      0.00000000</i>
   <i name="ALDAX">      1.00000000</i>
   <i name="AGGAX">      1.00000000</i>
   <i name="ALDAC">      1.00000000</i>
   <i name="AGGAC">      1.00000000</i>
   <i type="int" name="NKREDX">     1</i>
   <i type="int" name="NKREDY">     1</i>
   <i type="int" name="NKREDZ">     1</i>
   <i type="logical" name="SHIFTRED"> F  </i>
   <i type="logical" name="ODDONLY"> F  </i>
   <i type="logical" name="EVENONLY"> F  </i>
   <i type="int" name="LMAXFOCK">     0</i>
   <i type="int" name="NMAXFOCKAE">     0</i>
   <i type="logical" name="LFOCKAEDFT"> F  </i>
   <i name="HFSCREEN">      0.00000000</i>
   <i name="HFSCREENC">      0.00000000</i>
   <i type="int" name="NBANDSGWLOW">     0</i>
  </separator>
  <separator name="vdW DFT" >
   <i type="logical" name="LUSE_VDW"> F  </i>
   <i name="Zab_VDW">     -0.84910000</i>
   <i name="PARAM1">      0.12340000</i>
   <i name="PARAM2">      1.00000000</i>
   <i name="PARAM3">      0.00000000</i>
  </separator>
  <separator name="model GW" >
   <i type="int" name="MODEL_GW">     0</i>
   <i name="MODEL_EPS0">      5.66033017</i>
   <i name="MODEL_ALPHA">      1.00000000</i>
  </separator>
  <separator name="linear response parameters" >
   <i type="logical" name="LEPSILON"> F  </i>
   <i type="logical" name="LRPA"> F  </i>
   <i type="logical" name="LNABLA"> F  </i>
   <i type="logical" name="LVEL"> F  </i>
   <i type="int" name="KINTER">     0</i>
   <i name="CSHIFT">      0.10000000</i>
   <i name="OMEGAMAX">     -1.00000000</i>
   <i name="DEG_THRESHOLD">      0.00200000</i>
   <i name="RTIME">     -0.10000000</i>
   <i name="WPLASMAI">      0.00000000</i>
   <v name="DFIELD">      0.00000000      0.00000000      0.00000000</v>
   <v name="WPLASMA">      0.00000000      0.00000000      0.00000000      0.00000000      0.00000000      0.00000000      0.00000000      0.00000000      0.00000000</v>
  </separator>
  <separator name="orbital magnetization" >
   <i type="logical" name="NUCIND"> F  </i>
   <v name="MAGPOS">      0.00000000      0.00000000      0.00000000</v>
   <i type="logical" name="LNICSALL"> T  </i>
   <i type="logical" name="ORBITALMAG"> F  </i>
   <i type="logical" name="LMAGBLOCH"> F  </i>
   <i type="logical" name="LCHIMAG"> F  </i>
   <i type="logical" name="LGAUGE"> T  </i>
   <i type="int" name="MAGATOM">     0</i>
   <v name="MAGDIPOL">      0.00000000      0.00000000      0.00000000</v>
   <v name="AVECCONST">      0.00000000      0.00000000      0.00000000</v>
  </separator>
  <separator name="response functions" >
   <i type="logical" name="LADDER"> F  </i>
   <i type="logical" name="LRPAFORCE"> F  </i>
   <i type="logical" name="LFXC"> F  </i>
   <i type="logical" name="LHARTREE"> T  </i>
   <i type="int" name="IBSE">     0</i>
   <v type="int" name="KPOINT">    -1     0     0     0</v>
   <i type="logical" name="LTCTE"> F  </i>
   <i type="logical" name="LTETE"> F  </i>
   <i type="logical" name="LTRIPLET"> F  </i>
   <i type="logical" name="LFXCEPS"> F  </i>
   <i type="logical" name="LFXHEG"> F  </i>
   <i type="int" name="NATURALO">     2</i>
   <i type="logical" name="L2ORDER"> F  </i>
   <i type="logical" name="LMP2LT"> F  </i>
   <i type="logical" name="LUSEW"> F  </i>
   <i name="ENCUTGW">     -2.00000000</i>
   <i name="ENCUTGWSOFT">     -2.00000000</i>
   <i name="ENCUTLF">     -1.00000000</i>
   <i type="int" name="LMAXMP2">    -1</i>
   <i name="SCISSOR">      0.00000000</i>
   <i type="int" name="NOMEGA">     0</i>
   <i type="int" name="NOMEGAR">     0</i>
   <i type="int" name="NBANDSGW">    -1</i>
   <i type="int" name="NBANDSO">    -1</i>
   <i type="int" name="NBANDSV">    -1</i>
   <i type="int" name="NELM">  1000</i>
   <i type="int" name="NELMHF">     1</i>
   <i type="int" name="DIM">     3</i>
   <i type="int" name="ANTIRES">     0</i>
   <i name="OMEGAMAX">    -30.00000000</i>
   <i name="OMEGAMIN">    -30.00000000</i>
   <i name="OMEGATL">   -200.00000000</i>
   <i type="int" name="OMEGAGRID">   140</i>
   <i name="CSHIFT">     -0.10000000</i>
   <i type="logical" name="SELFENERGY"> F  </i>
   <i type="logical" name="LSPECTRAL"> F  </i>
   <i type="logical" name="LSPECTRALGW"> F  </i>
   <i type="logical" name="LSINGLES"> F  </i>
   <i type="logical" name="LFERMIGW"> F  </i>
   <i type="logical" name="ODDONLYGW"> F  </i>
   <i type="logical" name="EVENONLYGW"> F  </i>
   <i type="int" name="NKREDLFX">     1</i>
   <i type="int" name="NKREDLFY">     1</i>
   <i type="int" name="NKREDLFZ">     1</i>
   <i type="int" name="MAXMEM">  2800</i>
   <i type="int" name="TELESCOPE">     0</i>
   <i type="int" name="TAUPAR">     1</i>
   <i type="int" name="OMEGAPAR">    -1</i>
   <i name="LAMBDA">      1.00000000</i>
  </separator>
  <separator name="External order field" >
   <i name="OFIELD_KAPPA">      0.00000000</i>
   <v name="OFIELD_K">      0.00000000      0.00000000      0.00000000</v>
   <i name="OFIELD_Q6_NEAR">      0.00000000</i>
   <i name="OFIELD_Q6_FAR">      0.00000000</i>
   <i name="OFIELD_A">      0.00000000</i>
  </separator>
 </parameters>
 <atominfo>
  <atoms>      80 </atoms>
  <types>       4 </types>
  <array name="atoms" >
   <dimension dim="1">ion</dimension>
   <field type="string">element</field>
   <field type="int">atomtype</field>
   <set>
    <rc><c>Li</c><c>   1</c></rc>
    <rc><c>Li</c><c>   1</c></rc>
    <rc><c>Li</c><c>   1</c></rc>
    <rc><c>Li</c><c>   1</c></rc>
    <rc><c>Li</c><c>   1</c></rc>
    <rc><c>Li</c><c>   1</c></rc>
    <rc><c>Li</c><c>   1</c></rc>
    <rc><c>Li</c><c>   1</c></rc>
    <rc><c>Li</c><c>   1</c></rc>
    <rc><c>Li</c><c>   1</c></rc>
    <rc><c>Li</c><c>   1</c></rc>
    <rc><c>Li</c><c>   1</c></rc>
    <rc><c>Li</c><c>   1</c></rc>
    <rc><c>Li</c><c>   1</c></rc>
    <rc><c>Li</c><c>   1</c></rc>
    <rc><c>Li</c><c>   1</c></rc>
    <rc><c>Nb</c><c>   2</c></rc>
    <rc><c>Nb</c><c>   2</c></rc>
    <rc><c>Nb</c><c>   2</c></rc>
    <rc><c>Nb</c><c>   2</c></rc>
    <rc><c>Nb</c><c>   2</c></rc>
    <rc><c>Nb</c><c>   2</c></rc>
    <rc><c>Nb</c><c>   2</c></rc>
    <rc><c>Nb</c><c>   2</c></rc>
    <rc><c>Nb</c><c>   2</c></rc>
    <rc><c>Nb</c><c>   2</c></rc>
    <rc><c>O </c><c>   3</c></rc>
    <rc><c>O </c><c>   3</c></rc>
    <rc><c>O </c><c>   3</c></rc>
    <rc><c>O </c><c>   3</c></rc>
    <rc><c>O </c><c>   3</c></rc>
    <rc><c>O </c><c>   3</c></rc>
    <rc><c>O </c><c>   3</c></rc>
    <rc><c>O </c><c>   3</c></rc>
    <rc><c>O </c><c>   3</c></rc>
    <rc><c>O </c><c>   3</c></rc>
    <rc><c>O </c><c>   3</c></rc>
    <rc><c>O </c><c>   3</c></rc>
    <rc><c>O </c><c>   3</c></rc>
    <rc><c>O </c><c>   3</c></rc>
    <rc><c>O </c><c>   3</c></rc>
    <rc><c>O </c><c>   3</c></rc>
    <rc><c>O </c><c>   3</c></rc>
    <rc><c>O </c><c>   3</c></rc>
    <rc><c>O </c><c>   3</c></rc>
    <rc><c>O </c><c>   3</c></rc>
    <rc><c>O </c><c>   3</c></rc>
    <rc><c>O </c><c>   3</c></rc>
    <rc><c>O </c><c>   3</c></rc>
    <rc><c>O </c><c>   3</c></rc>
    <rc><c>O </c><c>   3</c></rc>
    <rc><c>O </c><c>   3</c></rc>
    <rc><c>O </c><c>   3</c></rc>
    <rc><c>O </c><c>   3</c></rc>
    <rc><c>O </c><c>   3</c></rc>
    <rc><c>O </c><c>   3</c></rc>
    <rc><c>O </c><c>   3</c></rc>
    <rc><c>O </c><c>   3</c></rc>
    <rc><c>O </c><c>   3</c></rc>
    <rc><c>O </c><c>   3</c></rc>
    <rc><c>O </c><c>   3</c></rc>
    <rc><c>O </c><c>   3</c></rc>
    <rc><c>O </c><c>   3</c></rc>
    <rc><c>O </c><c>   3</c></rc>
    <rc><c>O </c><c>   3</c></rc>
    <rc><c>O </c><c>   3</c></rc>
    <rc><c>O </c><c>   3</c></rc>
    <rc><c>O </c><c>   3</c></rc>
    <rc><c>O </c><c>   3</c></rc>
    <rc><c>O </c><c>   3</c></rc>
    <rc><c>O </c><c>   3</c></rc>
    <rc><c>O </c><c>   3</c></rc>
    <rc><c>O </c><c>   3</c></rc>
    <rc><c>O </c><c>   3</c></rc>
    <rc><c>Ta</c><c>   4</c></rc>
    <rc><c>Ta</c><c>   4</c></rc>
    <rc><c>Ta</c><c>   4</c></rc>
    <rc><c>Ta</c><c>   4</c></rc>
    <rc><c>Ta</c><c>   4</c></rc>
    <rc><c>Ta</c><c>   4</c></rc>
   </set>
  </array>
  <array name="atomtypes" >
   <dimension dim="1">type</dimension>
   <field type="int">atomspertype</field>
   <field type="string">element</field>
   <field>mass</field>
   <field>valence</field>
   <field type="string">pseudopotential</field>
   <set>
    <rc><c>  16</c><c>Li</c><c>      7.01000000</c><c>      1.00000000</c><c>  PAW_PBE Li 17Jan2003                  </c></rc>
    <rc><c>  10</c><c>Nb</c><c>     92.91000000</c><c>     13.00000000</c><c>  PAW_PBE Nb_sv 25May2007               </c></rc>
    <rc><c>  48</c><c>O </c><c>     16.00000000</c><c>      6.00000000</c><c>  PAW_PBE O 08Apr2002                   </c></rc>
    <rc><c>   6</c><c>Ta</c><c>    180.94800000</c><c>      5.00000000</c><c>  PAW_PBE Ta 17Jan2003                  </c></rc>
   </set>
  </array>
 </atominfo>
 <structure name="initialpos" >
  <crystal>
   <varray name="basis" >
    <v>       4.95641153      -2.86005004       8.87423969 </v>
    <v>       0.00237969       5.72162724       8.87340953 </v>
    <v>      -4.95390284      -2.86134946       8.87242667 </v>
   </varray>
   <i name="volume">    754.71068888 </i>
   <varray name="rec_basis" >
    <v>       0.10090574      -0.05827282       0.03754760 </v>
    <v>      -0.00002215       0.11651818       0.03756464 </v>
    <v>      -0.10090421      -0.05824636       0.03758466 </v>
   </varray>
  </crystal>
  <varray name="positions" >
   <v>       0.13834752       0.13936271       0.13984335 </v>
   <v>       0.39146324       0.38999630       0.39085144 </v>
   <v>       0.14028321       0.14032414       0.64092124 </v>
   <v>       0.39173469       0.39088444       0.89059988 </v>
   <v>       0.14005761       0.63914415       0.13990376 </v>
   <v>       0.38998511       0.89022976       0.39046082 </v>
   <v>       0.14027342       0.63856692       0.63942290 </v>
   <v>       0.39066873       0.89122478       0.89017412 </v>
   <v>       0.63968950       0.14081636       0.13851063 </v>
   <v>       0.89081879       0.39199278       0.39127564 </v>
   <v>       0.64044608       0.13979598       0.63895884 </v>
   <v>       0.89104424       0.39188824       0.88993991 </v>
   <v>       0.63987068       0.64050964       0.14005521 </v>
   <v>       0.88952244       0.89019616       0.39154151 </v>
   <v>       0.64095434       0.64008558       0.64144699 </v>
   <v>       0.89103108       0.89076076       0.89134632 </v>
   <v>       0.99959237       0.00150112       0.99675172 </v>
   <v>       0.99938324       0.00003493       0.49763958 </v>
   <v>       0.25168038       0.24891337       0.74959517 </v>
   <v>       0.99749990       0.49794372       0.00086033 </v>
   <v>       0.00052440       0.49715140       0.50088067 </v>
   <v>       0.49988249       0.99738472       0.00090131 </v>
   <v>       0.49954620       0.50003968       0.99785757 </v>
   <v>       0.75097315       0.74942469       0.24984287 </v>
   <v>       0.49985523       0.50129758       0.49655071 </v>
   <v>       0.74940214       0.75095878       0.74802348 </v>
   <v>       0.05623360       0.18120304       0.36059596 </v>
   <v>       0.36055215       0.05618073       0.18135900 </v>
   <v>       0.18067803       0.36043515       0.05635112 </v>
   <v>       0.43164615       0.30579781       0.11007695 </v>
   <v>       0.10933811       0.43208088       0.30572184 </v>
   <v>       0.30616879       0.11038237       0.43144631 </v>
   <v>       0.05540035       0.18155956       0.86034038 </v>
   <v>       0.35943918       0.05639020       0.68203455 </v>
   <v>       0.18159346       0.36067916       0.55556672 </v>
   <v>       0.43176800       0.30520898       0.61104129 </v>
   <v>       0.11066152       0.43074915       0.80539644 </v>
   <v>       0.30515946       0.11079423       0.93190663 </v>
   <v>       0.05604537       0.68076856       0.36081137 </v>
   <v>       0.36061507       0.55618152       0.18081868 </v>
   <v>       0.18040413       0.86090372       0.05629587 </v>
   <v>       0.43096027       0.80670950       0.10983535 </v>
   <v>       0.11018018       0.93120277       0.30647725 </v>
   <v>       0.30631393       0.60963452       0.43142758 </v>
   <v>       0.05642617       0.67983109       0.86072292 </v>
   <v>       0.36082901       0.55621291       0.68039936 </v>
   <v>       0.18050111       0.86073339       0.55625759 </v>
   <v>       0.43105925       0.80638098       0.60992686 </v>
   <v>       0.10974163       0.93076687       0.80662904 </v>
   <v>       0.30592914       0.60973059       0.93157562 </v>
   <v>       0.55668960       0.18089021       0.36049958 </v>
   <v>       0.86099568       0.05588109       0.18065345 </v>
   <v>       0.68094161       0.36072792       0.05606070 </v>
   <v>       0.93094987       0.30643726       0.10970186 </v>
   <v>       0.61015919       0.43137998       0.30635721 </v>
   <v>       0.80662739       0.10979363       0.43135599 </v>
   <v>       0.55625493       0.18016866       0.86082204 </v>
   <v>       0.86060460       0.05601788       0.68054061 </v>
   <v>       0.68056339       0.36084158       0.55626059 </v>
   <v>       0.93128773       0.30623948       0.60979445 </v>
   <v>       0.61008613       0.43101265       0.80636497 </v>
   <v>       0.80623116       0.10929440       0.93147945 </v>
   <v>       0.55554077       0.68183433       0.36007734 </v>
   <v>       0.86007458       0.55634829       0.18046819 </v>
   <v>       0.68107200       0.86046774       0.05575260 </v>
   <v>       0.93136114       0.80492582       0.11095065 </v>
   <v>       0.61067752       0.93165297       0.30547765 </v>
   <v>       0.80503784       0.61074302       0.43111591 </v>
   <v>       0.55556968       0.68082022       0.86090541 </v>
   <v>       0.86059508       0.55581627       0.68050717 </v>
   <v>       0.68097931       0.85972506       0.55655493 </v>
   <v>       0.93138973       0.80539064       0.61084254 </v>
   <v>       0.61024363       0.93134011       0.80571432 </v>
   <v>       0.80584636       0.61083297       0.93009391 </v>
   <v>       0.24862253       0.24992729       0.24762435 </v>
   <v>       0.24806756       0.74806531       0.24849505 </v>
   <v>       0.24752603       0.74745881       0.74934160 </v>
   <v>       0.74730972       0.24776208       0.24918815 </v>
   <v>       0.49682629       0.99767190       0.50015434 </v>
   <v>       0.74834988       0.24827406       0.74832874 </v>
  </varray>
 </structure>
 <calculation>
  <scstep>
   <time name="dav">   27.41   27.40</time>
   <time name="total">   27.57   27.57</time>
   <energy>
    <i name="alphaZ">   1823.26673663 </i>
    <i name="ewald"> -27757.02283481 </i>
    <i name="hartreedc"> -10183.43522287 </i>
    <i name="XCdc">   1483.58639893 </i>
    <i name="pawpsdc">  30201.20122080 </i>
    <i name="pawaedc"> -29545.67637776 </i>
    <i name="eentropy">      0.00000000 </i>
    <i name="bandstr">    644.97591579 </i>
    <i name="atom">  37080.84622879 </i>
    <i name="e_fr_energy">   3747.74206550 </i>
    <i name="e_wo_entrp">   3747.74206550 </i>
    <i name="e_0_energy">   3747.74206550 </i>
   </energy>
  </scstep>
  <scstep>
   <time name="dav">   40.63   40.64</time>
   <time name="total">   40.64   40.65</time>
   <energy>
    <i name="e_fr_energy">   -548.89774128 </i>
    <i name="e_wo_entrp">   -548.89774128 </i>
    <i name="e_0_energy">   -548.89774128 </i>
   </energy>
  </scstep>
  <scstep>
   <time name="dav">   40.83   40.84</time>
   <time name="total">   40.84   40.85</time>
   <energy>
    <i name="e_fr_energy">   -786.00488418 </i>
    <i name="e_wo_entrp">   -786.00488418 </i>
    <i name="e_0_energy">   -786.00488418 </i>
   </energy>
  </scstep>
  <scstep>
   <time name="dav">   47.31   47.32</time>
   <time name="total">   47.32   47.32</time>
   <energy>
    <i name="e_fr_energy">   -796.73753507 </i>
    <i name="e_wo_entrp">   -796.73753507 </i>
    <i name="e_0_energy">   -796.73753507 </i>
   </energy>
  </scstep>
  <scstep>
   <time name="dav">   42.54   42.55</time>
   <time name="total">   43.53   43.54</time>
   <energy>
    <i name="e_fr_energy">   -796.91264811 </i>
    <i name="e_wo_entrp">   -796.91264811 </i>
    <i name="e_0_energy">   -796.91264811 </i>
   </energy>
  </scstep>
  <scstep>
   <time name="diag">    3.90    3.90</time>
   <time name="diis">   13.54   13.54</time>
   <time name="orth">    0.53    0.53</time>
   <time name="total">   19.03   19.04</time>
   <energy>
    <i name="e_fr_energy">   -681.44123721 </i>
    <i name="e_wo_entrp">   -681.44123721 </i>
    <i name="e_0_energy">   -681.44123721 </i>
   </energy>
  </scstep>
  <scstep>
   <time name="diag">    3.95    3.95</time>
   <time name="diis">   15.65   15.65</time>
   <time name="orth">    0.53    0.53</time>
   <time name="total">   21.18   21.19</time>
   <energy>
    <i name="e_fr_energy">   -672.98578846 </i>
    <i name="e_wo_entrp">   -672.98578846 </i>
    <i name="e_0_energy">   -672.98578846 </i>
   </energy>
  </scstep>
  <scstep>
   <time name="diag">    3.94    3.94</time>
   <time name="diis">   17.05   17.05</time>
   <time name="orth">    0.53    0.53</time>
   <time name="total">   22.57   22.58</time>
   <energy>
    <i name="e_fr_energy">   -672.85156630 </i>
    <i name="e_wo_entrp">   -672.85156630 </i>
    <i name="e_0_energy">   -672.85156630 </i>
   </energy>
  </scstep>
  <scstep>
   <time name="diag">    3.93    3.93</time>
   <time name="diis">   18.76   18.75</time>
   <time name="orth">    0.54    0.54</time>
   <time name="total">   24.27   24.28</time>
   <energy>
    <i name="e_fr_energy">   -672.79488113 </i>
    <i name="e_wo_entrp">   -672.79488113 </i>
    <i name="e_0_energy">   -672.79488113 </i>
   </energy>
  </scstep>
  <scstep>
   <time name="diag">    3.92    3.92</time>
   <time name="diis">   19.04   19.04</time>
   <time name="orth">    0.53    0.53</time>
   <time name="total">   24.54   24.56</time>
   <energy>
    <i name="e_fr_energy">   -672.81986816 </i>
    <i name="e_wo_entrp">   -672.81986816 </i>
    <i name="e_0_energy">   -672.81986816 </i>
   </energy>
  </scstep>
  <scstep>
   <time name="diag">    3.90    3.90</time>
   <time name="diis">   19.89   19.89</time>
   <time name="orth">    0.53    0.53</time>
   <time name="total">   25.38   25.39</time>
   <energy>
    <i name="e_fr_energy">   -672.82804543 </i>
    <i name="e_wo_entrp">   -672.82804543 </i>
    <i name="e_0_energy">   -672.82804543 </i>
   </energy>
  </scstep>
  <scstep>
   <time name="diag">    3.92    3.92</time>
   <time name="diis">   20.04   20.03</time>
   <time name="orth">    0.53    0.53</time>
   <time name="total">   25.53   25.54</time>
   <energy>
    <i name="e_fr_energy">   -672.83130217 </i>
    <i name="e_wo_entrp">   -672.83130217 </i>
    <i name="e_0_energy">   -672.83130217 </i>
   </energy>
  </scstep>
  <scstep>
   <time name="diag">    3.91    3.91</time>
   <time name="diis">   20.11   20.11</time>
   <time name="orth">    0.53    0.53</time>
   <time name="total">   25.60   25.61</time>
   <energy>
    <i name="e_fr_energy">   -672.83225966 </i>
    <i name="e_wo_entrp">   -672.83225966 </i>
    <i name="e_0_energy">   -672.83225966 </i>
   </energy>
  </scstep>
  <scstep>
   <time name="diag">    3.90    3.90</time>
   <time name="diis">   20.05   20.05</time>
   <time name="orth">    0.53    0.53</time>
   <time name="total">   25.53   25.54</time>
   <energy>
    <i name="e_fr_energy">   -672.83272132 </i>
    <i name="e_wo_entrp">   -672.83272132 </i>
    <i name="e_0_energy">   -672.83272132 </i>
   </energy>
  </scstep>
  <scstep>
   <time name="diag">    3.92    3.92</time>
   <time name="diis">   20.08   20.08</time>
   <time name="orth">    0.53    0.53</time>
   <time name="total">   25.58   25.59</time>
   <energy>
    <i name="e_fr_energy">   -672.83286010 </i>
    <i name="e_wo_entrp">   -672.83286010 </i>
    <i name="e_0_energy">   -672.83286010 </i>
   </energy>
  </scstep>
  <scstep>
   <time name="diag">    3.90    3.90</time>
   <time name="diis">   19.90   19.90</time>
   <time name="orth">    0.53    0.53</time>
   <time name="total">   25.38   25.39</time>
   <energy>
    <i name="e_fr_energy">   -672.83293570 </i>
    <i name="e_wo_entrp">   -672.83293570 </i>
    <i name="e_0_energy">   -672.83293570 </i>
   </energy>
  </scstep>
  <scstep>
   <time name="diag">    3.91    3.91</time>
   <time name="diis">   19.11   19.11</time>
   <time name="orth">    0.53    0.53</time>
   <time name="total">   24.60   24.61</time>
   <energy>
    <i name="e_fr_energy">   -672.83296099 </i>
    <i name="e_wo_entrp">   -672.83296099 </i>
    <i name="e_0_energy">   -672.83296099 </i>
   </energy>
  </scstep>
  <scstep>
   <time name="diag">    3.92    3.92</time>
   <time name="diis">   18.82   18.82</time>
   <time name="orth">    0.53    0.53</time>
   <time name="total">   24.32   24.33</time>
   <energy>
    <i name="e_fr_energy">   -673.10531807 </i>
    <i name="e_wo_entrp">   -673.10531807 </i>
    <i name="e_0_energy">   -673.10531807 </i>
   </energy>
  </scstep>
  <scstep>
   <time name="diag">    3.91    3.91</time>
   <time name="diis">   18.16   18.16</time>
   <time name="orth">    0.53    0.53</time>
   <time name="total">   23.69   23.71</time>
   <energy>
    <i name="e_fr_energy">   -672.56704359 </i>
    <i name="e_wo_entrp">   -672.56704359 </i>
    <i name="e_0_energy">   -672.56704359 </i>
   </energy>
  </scstep>
  <scstep>
   <time name="diag">    3.90    3.90</time>
   <time name="diis">   14.32   14.32</time>
   <time name="orth">    0.53    0.53</time>
   <time name="total">   19.84   19.85</time>
   <energy>
    <i name="e_fr_energy">   -672.56676569 </i>
    <i name="e_wo_entrp">   -672.56676569 </i>
    <i name="e_0_energy">   -672.56676569 </i>
   </energy>
  </scstep>
  <scstep>
   <time name="diag">    3.91    3.91</time>
   <time name="diis">   16.04   16.03</time>
   <time name="orth">    0.53    0.53</time>
   <time name="total">   21.58   21.59</time>
   <energy>
    <i name="e_fr_energy">   -672.56674544 </i>
    <i name="e_wo_entrp">   -672.56674544 </i>
    <i name="e_0_energy">   -672.56674544 </i>
   </energy>
  </scstep>
  <scstep>
   <time name="diag">    3.93    3.93</time>
   <time name="diis">   18.29   18.29</time>
   <time name="orth">    0.53    0.53</time>
   <time name="total">   23.85   23.85</time>
   <energy>
    <i name="e_fr_energy">   -672.56675750 </i>
    <i name="e_wo_entrp">   -672.56675750 </i>
    <i name="e_0_energy">   -672.56675750 </i>
   </energy>
  </scstep>
  <scstep>
   <time name="diag">    3.92    3.92</time>
   <time name="diis">   17.44   17.44</time>
   <time name="orth">    0.53    0.53</time>
   <time name="total">   22.99   23.00</time>
   <energy>
    <i name="e_fr_energy">   -672.56675519 </i>
    <i name="e_wo_entrp">   -672.56675519 </i>
    <i name="e_0_energy">   -672.56675519 </i>
   </energy>
  </scstep>
  <scstep>
   <time name="diag">    3.92    3.92</time>
   <time name="diis">   13.11   13.11</time>
   <time name="orth">    0.53    0.53</time>
   <time name="total">   18.65   18.66</time>
   <energy>
    <i name="e_fr_energy">   -672.56673412 </i>
    <i name="e_wo_entrp">   -672.56673412 </i>
    <i name="e_0_energy">   -672.56673412 </i>
   </energy>
  </scstep>
  <scstep>
   <time name="diag">    3.92    3.92</time>
   <time name="diis">   10.38   10.37</time>
   <time name="orth">    0.53    0.53</time>
   <time name="total">   15.92   15.93</time>
   <energy>
    <i name="e_fr_energy">   -672.56672594 </i>
    <i name="e_wo_entrp">   -672.56672594 </i>
    <i name="e_0_energy">   -672.56672594 </i>
   </energy>
  </scstep>
  <scstep>
   <time name="diag">    3.91    3.90</time>
   <time name="diis">   11.05   11.05</time>
   <time name="orth">    0.53    0.53</time>
   <time name="total">   16.58   16.59</time>
   <energy>
    <i name="e_fr_energy">   -672.56672409 </i>
    <i name="e_wo_entrp">   -672.56672409 </i>
    <i name="e_0_energy">   -672.56672409 </i>
   </energy>
  </scstep>
  <scstep>
   <time name="diag">    3.90    3.90</time>
   <time name="diis">    9.32    9.32</time>
   <time name="orth">    0.53    0.53</time>
   <time name="total">   14.84   14.85</time>
   <energy>
    <i name="e_fr_energy">   -672.56672189 </i>
    <i name="e_wo_entrp">   -672.56672189 </i>
    <i name="e_0_energy">   -672.56672189 </i>
   </energy>
  </scstep>
  <scstep>
   <time name="diag">    3.90    3.90</time>
   <time name="diis">   11.20   11.19</time>
   <time name="orth">    0.53    0.53</time>
   <time name="total">   16.72   16.73</time>
   <energy>
    <i name="e_fr_energy">   -672.56671953 </i>
    <i name="e_wo_entrp">   -672.56671953 </i>
    <i name="e_0_energy">   -672.56671953 </i>
   </energy>
  </scstep>
  <scstep>
   <time name="diag">    3.90    3.90</time>
   <time name="diis">   11.35   11.35</time>
   <time name="orth">    0.53    0.53</time>
   <time name="total">   16.88   16.89</time>
   <energy>
    <i name="e_fr_energy">   -672.56671801 </i>
    <i name="e_wo_entrp">   -672.56671801 </i>
    <i name="e_0_energy">   -672.56671801 </i>
   </energy>
  </scstep>
  <scstep>
   <time name="diag">    3.90    3.90</time>
   <time name="diis">    9.05    9.05</time>
   <time name="orth">    0.53    0.53</time>
   <time name="total">   13.60   13.61</time>
   <energy>
    <i name="alphaZ">   1823.26673663 </i>
    <i name="ewald"> -27757.02283481 </i>
    <i name="hartreedc"> -10665.18956147 </i>
    <i name="XCdc">   1536.09719631 </i>
    <i name="pawpsdc">  52669.76088923 </i>
    <i name="pawaedc"> -51993.94488175 </i>
    <i name="eentropy">      0.00000000 </i>
    <i name="bandstr">  -3366.38049043 </i>
    <i name="atom">  37080.84622879 </i>
    <i name="e_fr_energy">   -672.56671751 </i>
    <i name="e_wo_entrp">   -672.56671751 </i>
    <i name="e_0_energy">   -672.56671751 </i>
   </energy>
  </scstep>
  <structure>
   <crystal>
    <varray name="basis" >
     <v>       4.95641153      -2.86005004       8.87423969 </v>
     <v>       0.00237969       5.72162724       8.87340953 </v>
     <v>      -4.95390284      -2.86134946       8.87242667 </v>
    </varray>
    <i name="volume">    754.71068888 </i>
    <varray name="rec_basis" >
     <v>       0.10090574      -0.05827282       0.03754760 </v>
     <v>      -0.00002215       0.11651818       0.03756464 </v>
     <v>      -0.10090421      -0.05824636       0.03758466 </v>
    </varray>
   </crystal>
   <varray name="positions" >
    <v>       0.13834752       0.13936271       0.13984335 </v>
    <v>       0.39146324       0.38999630       0.39085144 </v>
    <v>       0.14028321       0.14032414       0.64092124 </v>
    <v>       0.39173469       0.39088444       0.89059988 </v>
    <v>       0.14005761       0.63914415       0.13990376 </v>
    <v>       0.38998511       0.89022976       0.39046082 </v>
    <v>       0.14027342       0.63856692       0.63942290 </v>
    <v>       0.39066873       0.89122478       0.89017412 </v>
    <v>       0.63968950       0.14081636       0.13851063 </v>
    <v>       0.89081879       0.39199278       0.39127564 </v>
    <v>       0.64044608       0.13979598       0.63895884 </v>
    <v>       0.89104424       0.39188824       0.88993991 </v>
    <v>       0.63987068       0.64050964       0.14005521 </v>
    <v>       0.88952244       0.89019616       0.39154151 </v>
    <v>       0.64095434       0.64008558       0.64144699 </v>
    <v>       0.89103108       0.89076076       0.89134632 </v>
    <v>       0.99959237       0.00150112       0.99675172 </v>
    <v>       0.99938324       0.00003493       0.49763958 </v>
    <v>       0.25168038       0.24891337       0.74959517 </v>
    <v>       0.99749990       0.49794372       0.00086033 </v>
    <v>       0.00052440       0.49715140       0.50088067 </v>
    <v>       0.49988249       0.99738472       0.00090131 </v>
    <v>       0.49954620       0.50003968       0.99785757 </v>
    <v>       0.75097315       0.74942469       0.24984287 </v>
    <v>       0.49985523       0.50129758       0.49655071 </v>
    <v>       0.74940214       0.75095878       0.74802348 </v>
    <v>       0.05623360       0.18120304       0.36059596 </v>
    <v>       0.36055215       0.05618073       0.18135900 </v>
    <v>       0.18067803       0.36043515       0.05635112 </v>
    <v>       0.43164615       0.30579781       0.11007695 </v>
    <v>       0.10933811       0.43208088       0.30572184 </v>
    <v>       0.30616879       0.11038237       0.43144631 </v>
    <v>       0.05540035       0.18155956       0.86034038 </v>
    <v>       0.35943918       0.05639020       0.68203455 </v>
    <v>       0.18159346       0.36067916       0.55556672 </v>
    <v>       0.43176800       0.30520898       0.61104129 </v>
    <v>       0.11066152       0.43074915       0.80539644 </v>
    <v>       0.30515946       0.11079423       0.93190663 </v>
    <v>       0.05604537       0.68076856       0.36081137 </v>
    <v>       0.36061507       0.55618152       0.18081868 </v>
    <v>       0.18040413       0.86090372       0.05629587 </v>
    <v>       0.43096027       0.80670950       0.10983535 </v>
    <v>       0.11018018       0.93120277       0.30647725 </v>
    <v>       0.30631393       0.60963452       0.43142758 </v>
    <v>       0.05642617       0.67983109       0.86072292 </v>
    <v>       0.36082901       0.55621291       0.68039936 </v>
    <v>       0.18050111       0.86073339       0.55625759 </v>
    <v>       0.43105925       0.80638098       0.60992686 </v>
    <v>       0.10974163       0.93076687       0.80662904 </v>
    <v>       0.30592914       0.60973059       0.93157562 </v>
    <v>       0.55668960       0.18089021       0.36049958 </v>
    <v>       0.86099568       0.05588109       0.18065345 </v>
    <v>       0.68094161       0.36072792       0.05606070 </v>
    <v>       0.93094987       0.30643726       0.10970186 </v>
    <v>       0.61015919       0.43137998       0.30635721 </v>
    <v>       0.80662739       0.10979363       0.43135599 </v>
    <v>       0.55625493       0.18016866       0.86082204 </v>
    <v>       0.86060460       0.05601788       0.68054061 </v>
    <v>       0.68056339       0.36084158       0.55626059 </v>
    <v>       0.93128773       0.30623948       0.60979445 </v>
    <v>       0.61008613       0.43101265       0.80636497 </v>
    <v>       0.80623116       0.10929440       0.93147945 </v>
    <v>       0.55554077       0.68183433       0.36007734 </v>
    <v>       0.86007458       0.55634829       0.18046819 </v>
    <v>       0.68107200       0.86046774       0.05575260 </v>
    <v>       0.93136114       0.80492582       0.11095065 </v>
    <v>       0.61067752       0.93165297       0.30547765 </v>
    <v>       0.80503784       0.61074302       0.43111591 </v>
    <v>       0.55556968       0.68082022       0.86090541 </v>
    <v>       0.86059508       0.55581627       0.68050717 </v>
    <v>       0.68097931       0.85972506       0.55655493 </v>
    <v>       0.93138973       0.80539064       0.61084254 </v>
    <v>       0.61024363       0.93134011       0.80571432 </v>
    <v>       0.80584636       0.61083297       0.93009391 </v>
    <v>       0.24862253       0.24992729       0.24762435 </v>
    <v>       0.24806756       0.74806531       0.24849505 </v>
    <v>       0.24752603       0.74745881       0.74934160 </v>
    <v>       0.74730972       0.24776208       0.24918815 </v>
    <v>       0.49682629       0.99767190       0.50015434 </v>
    <v>       0.74834988       0.24827406       0.74832874 </v>
   </varray>
  </structure>
  <varray name="forces" >
   <v>       0.00726130      -0.00036926       0.03267383 </v>
   <v>      -0.00616126       0.00561690       0.00889091 </v>
   <v>      -0.00387870       0.00133912       0.01643683 </v>
   <v>      -0.00575924       0.00198749      -0.00951998 </v>
   <v>      -0.00252945       0.00709992       0.02397871 </v>
   <v>       0.00699378       0.00048412       0.00579414 </v>
   <v>      -0.00586694       0.00411556       0.02340214 </v>
   <v>      -0.00209818      -0.00247432       0.01054461 </v>
   <v>       0.00183541      -0.00949611       0.02054333 </v>
   <v>       0.00373211       0.00614612      -0.00747539 </v>
   <v>      -0.00744737      -0.00466292       0.02286400 </v>
   <v>       0.00074967       0.00065936       0.00105391 </v>
   <v>       0.00718718      -0.00077117       0.02217466 </v>
   <v>       0.00700837      -0.00305897       0.00901602 </v>
   <v>       0.00474992      -0.00093547       0.00817059 </v>
   <v>      -0.00230843      -0.00512770      -0.00583980 </v>
   <v>      -0.09623253      -0.15896863      -0.84522487 </v>
   <v>      -0.05443668      -0.05749091      -0.76152890 </v>
   <v>      -0.05896298       0.05554932      -0.93679506 </v>
   <v>       0.14160538       0.06637276      -0.79030227 </v>
   <v>       0.02469850       0.18095644      -0.89301895 </v>
   <v>       0.00261207       0.14262608      -0.85056198 </v>
   <v>      -0.06651732      -0.08061760      -0.79236317 </v>
   <v>      -0.03397817       0.07688892      -0.99611990 </v>
   <v>      -0.10541840      -0.12559012      -0.79082988 </v>
   <v>      -0.03567590      -0.07877024      -0.87376587 </v>
   <v>       0.11978888       1.41283188       0.16837708 </v>
   <v>      -1.27270222      -0.58431494       0.13743487 </v>
   <v>       1.17047038      -0.72745206       0.09831736 </v>
   <v>       1.51964778      -0.45790663       0.40392564 </v>
   <v>      -0.37069484       1.51960727       0.37540411 </v>
   <v>      -1.20143884      -0.79533017       0.15621851 </v>
   <v>       0.41046176       1.53638555       0.40255997 </v>
   <v>      -1.48187928      -0.45258865       0.36379656 </v>
   <v>       1.12267738      -1.09282886       0.38374828 </v>
   <v>       1.49887598      -0.40944808       0.36382795 </v>
   <v>      -0.31867161       1.44330847       0.28660690 </v>
   <v>      -1.13226521      -1.04417642       0.33299786 </v>
   <v>       0.03190147       1.36031892       0.05423130 </v>
   <v>      -1.20563790      -0.65839118       0.08374925 </v>
   <v>       1.12490317      -0.73891687       0.08476603 </v>
   <v>       1.40311383      -0.48496819       0.29281868 </v>
   <v>      -0.27635349       1.46107154       0.31432387 </v>
   <v>      -1.13102788      -1.00025891       0.32321662 </v>
   <v>       0.02650753       1.32407982       0.04518644 </v>
   <v>      -1.19599009      -0.66278131       0.07827306 </v>
   <v>       1.13481949      -0.75971158       0.11842673 </v>
   <v>       1.25412353      -0.66193568       0.11711690 </v>
   <v>      -0.28817140       1.48337423       0.33400123 </v>
   <v>      -1.13704666      -1.03667929       0.36659057 </v>
   <v>       0.04921778       1.38934167       0.10529296 </v>
   <v>      -1.22263776      -0.65940493       0.09931213 </v>
   <v>       1.14994207      -0.74489504       0.10689018 </v>
   <v>       1.35550135      -0.51626797       0.25364089 </v>
   <v>      -0.26115857       1.46672855       0.31404558 </v>
   <v>      -1.12796108      -0.98765390       0.32340435 </v>
   <v>       0.06827126       1.37190083       0.08537658 </v>
   <v>      -1.22716594      -0.64247279       0.10953374 </v>
   <v>       1.12112169      -0.74270913       0.08845499 </v>
   <v>       1.43511260      -0.47898534       0.32029873 </v>
   <v>      -0.30341308       1.48736369       0.33580893 </v>
   <v>      -1.13999127      -1.00049731       0.32183266 </v>
   <v>       0.38447068       1.51040002       0.37385532 </v>
   <v>      -1.45004163      -0.42307805       0.34257452 </v>
   <v>       1.11431120      -1.07579923       0.37269733 </v>
   <v>       1.52936963      -0.40148515       0.38173102 </v>
   <v>      -0.12878534       1.42778473       0.14865700 </v>
   <v>      -1.13987839      -1.12090649       0.38985482 </v>
   <v>       0.35152613       1.48662683       0.35520275 </v>
   <v>      -1.45103350      -0.41035085       0.32463988 </v>
   <v>       1.14165247      -0.98329035       0.31522174 </v>
   <v>       1.44049659      -0.46861227       0.32568542 </v>
   <v>      -0.33511902       1.45024064       0.30593780 </v>
   <v>      -1.09165314      -0.93180598       0.24990278 </v>
   <v>      -0.03857586      -0.04985061      -0.67885752 </v>
   <v>       0.00730759       0.00390627      -0.60880991 </v>
   <v>       0.06678255       0.01570364      -0.61328858 </v>
   <v>       0.07546101       0.00569791      -0.56185345 </v>
   <v>       0.09864327       0.04832159      -0.57981401 </v>
   <v>       0.00165280      -0.02074858      -0.64534209 </v>
  </varray>
  <varray name="stress" >
   <v>     309.48967636      -0.03856518      -0.09907542 </v>
   <v>      -0.03856538     309.57843247      -0.07377348 </v>
   <v>      -0.09907537      -0.07377352     280.33281085 </v>
  </varray>
  <energy>
   <i name="e_fr_energy">   -672.56671751 </i>
   <i name="e_wo_entrp">   -672.56671751 </i>
   <i name="e_0_energy">      0.00000000 </i>
  </energy>
  <time name="totalsc">  776.43  776.80</time>
 </calculation>
 <calculation>
  <scstep>
   <time name="dav">   30.67   30.67</time>
   <time name="total">   31.74   31.74</time>
   <energy>
    <i name="alphaZ">   1823.26673663 </i>
    <i name="ewald"> -27851.04558974 </i>
    <i name="hartreedc"> -10592.11740497 </i>
    <i name="XCdc">   1535.06335781 </i>
    <i name="pawpsdc">  52669.69785868 </i>
    <i name="pawaedc"> -51993.87641332 </i>
    <i name="eentropy">      0.00000000 </i>
    <i name="bandstr">  -3345.76801487 </i>
    <i name="atom">  37080.84622879 </i>
    <i name="e_fr_energy">   -673.93324099 </i>
    <i name="e_wo_entrp">   -673.93324099 </i>
    <i name="e_0_energy">   -673.93324099 </i>
   </energy>
  </scstep>
  <scstep>
   <time name="diag">    3.89    3.89</time>
   <time name="diis">   13.44   13.44</time>
   <time name="orth">    0.53    0.53</time>
   <time name="total">   18.92   18.94</time>
   <energy>
    <i name="e_fr_energy">   -674.20208163 </i>
    <i name="e_wo_entrp">   -674.20208163 </i>
    <i name="e_0_energy">   -674.20208163 </i>
   </energy>
  </scstep>
  <scstep>
   <time name="diag">    3.88    3.88</time>
   <time name="diis">   16.03   16.03</time>
   <time name="orth">    0.53    0.53</time>
   <time name="total">   21.49   21.51</time>
   <energy>
    <i name="e_fr_energy">   -674.16903355 </i>
    <i name="e_wo_entrp">   -674.16903355 </i>
    <i name="e_0_energy">   -674.16903355 </i>
   </energy>
  </scstep>
  <scstep>
   <time name="diag">    3.89    3.89</time>
   <time name="diis">   20.52   20.51</time>
   <time name="orth">    0.53    0.53</time>
   <time name="total">   25.99   25.99</time>
   <energy>
    <i name="e_fr_energy">   -674.16938946 </i>
    <i name="e_wo_entrp">   -674.16938946 </i>
    <i name="e_0_energy">   -674.16938946 </i>
   </energy>
  </scstep>
  <scstep>
   <time name="diag">    3.90    3.90</time>
   <time name="diis">   20.35   20.35</time>
   <time name="orth">    0.53    0.53</time>
   <time name="total">   25.83   25.84</time>
   <energy>
    <i name="e_fr_energy">   -674.16913149 </i>
    <i name="e_wo_entrp">   -674.16913149 </i>
    <i name="e_0_energy">   -674.16913149 </i>
   </energy>
  </scstep>
  <scstep>
   <time name="diag">    3.89    3.89</time>
   <time name="diis">   20.88   20.87</time>
   <time name="orth">    0.53    0.53</time>
   <time name="total">   26.35   26.37</time>
   <energy>
    <i name="e_fr_energy">   -674.16948669 </i>
    <i name="e_wo_entrp">   -674.16948669 </i>
    <i name="e_0_energy">   -674.16948669 </i>
   </energy>
  </scstep>
  <scstep>
   <time name="diag">    3.88    3.88</time>
   <time name="diis">   20.68   20.68</time>
   <time name="orth">    0.53    0.53</time>
   <time name="total">   26.14   26.16</time>
   <energy>
    <i name="e_fr_energy">   -674.16951578 </i>
    <i name="e_wo_entrp">   -674.16951578 </i>
    <i name="e_0_energy">   -674.16951578 </i>
   </energy>
  </scstep>
  <scstep>
   <time name="diag">    3.89    3.88</time>
   <time name="diis">   20.78   20.78</time>
   <time name="orth">    0.53    0.53</time>
   <time name="total">   26.25   26.26</time>
   <energy>
    <i name="e_fr_energy">   -675.46609222 </i>
    <i name="e_wo_entrp">   -675.46609222 </i>
    <i name="e_0_energy">   -675.46609222 </i>
   </energy>
  </scstep>
  <scstep>
   <time name="diag">    3.88    3.88</time>
   <time name="diis">   20.25   20.25</time>
   <time name="orth">    0.53    0.53</time>
   <time name="total">   25.75   25.77</time>
   <energy>
    <i name="e_fr_energy">   -673.71283225 </i>
    <i name="e_wo_entrp">   -673.71283225 </i>
    <i name="e_0_energy">   -673.71283225 </i>
   </energy>
  </scstep>
  <scstep>
   <time name="diag">    3.89    3.89</time>
   <time name="diis">   17.87   17.87</time>
   <time name="orth">    0.53    0.53</time>
   <time name="total">   23.39   23.41</time>
   <energy>
    <i name="e_fr_energy">   -673.71261050 </i>
    <i name="e_wo_entrp">   -673.71261050 </i>
    <i name="e_0_energy">   -673.71261050 </i>
   </energy>
  </scstep>
  <scstep>
   <time name="diag">    3.89    3.89</time>
   <time name="diis">   19.68   19.68</time>
   <time name="orth">    0.53    0.53</time>
   <time name="total">   25.19   25.20</time>
   <energy>
    <i name="e_fr_energy">   -673.71258178 </i>
    <i name="e_wo_entrp">   -673.71258178 </i>
    <i name="e_0_energy">   -673.71258178 </i>
   </energy>
  </scstep>
  <scstep>
   <time name="diag">    3.89    3.89</time>
   <time name="diis">   19.88   19.87</time>
   <time name="orth">    0.53    0.53</time>
   <time name="total">   25.40   25.41</time>
   <energy>
    <i name="e_fr_energy">   -673.71257522 </i>
    <i name="e_wo_entrp">   -673.71257522 </i>
    <i name="e_0_energy">   -673.71257522 </i>
   </energy>
  </scstep>
  <scstep>
   <time name="diag">    3.88    3.88</time>
   <time name="diis">   17.19   17.19</time>
   <time name="orth">    0.53    0.53</time>
   <time name="total">   22.70   22.71</time>
   <energy>
    <i name="e_fr_energy">   -673.71257444 </i>
    <i name="e_wo_entrp">   -673.71257444 </i>
    <i name="e_0_energy">   -673.71257444 </i>
   </energy>
  </scstep>
  <scstep>
   <time name="diag">    3.88    3.88</time>
   <time name="diis">   11.00   11.00</time>
   <time name="orth">    0.53    0.53</time>
   <time name="total">   15.52   15.54</time>
   <energy>
    <i name="alphaZ">   1823.26673663 </i>
    <i name="ewald"> -27851.04558974 </i>
    <i name="hartreedc"> -10570.85712847 </i>
    <i name="XCdc">   1534.32047164 </i>
    <i name="pawpsdc">  51384.56542857 </i>
    <i name="pawaedc"> -50710.17349899 </i>
    <i name="eentropy">      0.00000000 </i>
    <i name="bandstr">  -3364.63522247 </i>
    <i name="atom">  37080.84622879 </i>
    <i name="e_fr_energy">   -673.71257405 </i>
    <i name="e_wo_entrp">   -673.71257405 </i>
    <i name="e_0_energy">   -673.71257405 </i>
   </energy>
  </scstep>
  <structure>
   <crystal>
    <varray name="basis" >
     <v>       4.96044199      -2.86250729       8.85949969 </v>
     <v>       0.00228794       5.72634307       8.85865878 </v>
     <v>      -4.95806225      -2.86377522       8.85777336 </v>
    </varray>
    <i name="volume">    754.71068888 </i>
    <varray name="rec_basis" >
     <v>       0.10082255      -0.05822370       0.03761046 </v>
     <v>      -0.00002143       0.11642133       0.03762777 </v>
     <v>      -0.10082077      -0.05819792       0.03764587 </v>
    </varray>
   </crystal>
   <varray name="positions" >
    <v>       0.13837619       0.13937985       0.13985083 </v>
[...]
       <r>    2.6715    1.0000 </r>
       <r>    2.7338    1.0000 </r>
       <r>    2.7665    1.0000 </r>
       <r>    2.7818    1.0000 </r>
       <r>    2.7919    1.0000 </r>
       <r>    2.8013    1.0000 </r>
       <r>    2.8173    1.0000 </r>
       <r>    2.8745    1.0000 </r>
       <r>    2.8843    1.0000 </r>
       <r>    2.9028    1.0000 </r>
       <r>    2.9438    1.0000 </r>
       <r>    2.9463    1.0000 </r>
       <r>    2.9574    1.0000 </r>
       <r>    2.9972    1.0000 </r>
       <r>    3.0072    1.0000 </r>
       <r>    3.0307    1.0000 </r>
       <r>    3.0489    1.0000 </r>
       <r>    3.0597    1.0000 </r>
       <r>    3.0665    1.0000 </r>
       <r>    3.1335    1.0000 </r>
       <r>    3.1557    1.0000 </r>
       <r>    3.1730    1.0000 </r>
       <r>    3.1804    1.0000 </r>
       <r>    3.1989    1.0000 </r>
       <r>    3.2098    1.0000 </r>
       <r>    3.2524    1.0000 </r>
       <r>    3.2687    1.0000 </r>
       <r>    3.2745    1.0000 </r>
       <r>    3.2858    1.0000 </r>
       <r>    3.3363    1.0000 </r>
       <r>    3.3409    1.0000 </r>
       <r>    3.3612    1.0000 </r>
       <r>    3.4055    1.0000 </r>
       <r>    3.4202    1.0000 </r>
       <r>    3.4798    1.0000 </r>
       <r>    3.4889    1.0000 </r>
       <r>    3.5440    1.0000 </r>
       <r>    3.5611    1.0000 </r>
       <r>    3.5768    1.0000 </r>
       <r>    3.5819    1.0000 </r>
       <r>    3.5901    1.0000 </r>
       <r>    3.6098    1.0000 </r>
       <r>    3.6361    1.0000 </r>
       <r>    3.6466    1.0000 </r>
       <r>    3.6555    1.0000 </r>
       <r>    3.6841    1.0000 </r>
       <r>    7.6484    0.0000 </r>
       <r>    7.6697    0.0000 </r>
       <r>    7.7009    0.0000 </r>
       <r>    7.7104    0.0000 </r>
       <r>    7.7331    0.0000 </r>
       <r>    7.7762    0.0000 </r>
       <r>    7.8003    0.0000 </r>
       <r>    7.8196    0.0000 </r>
       <r>    7.8771    0.0000 </r>
       <r>    7.9044    0.0000 </r>
       <r>    7.9461    0.0000 </r>
       <r>    8.0006    0.0000 </r>
       <r>    8.0672    0.0000 </r>
       <r>    8.0911    0.0000 </r>
       <r>    8.1471    0.0000 </r>
       <r>    8.2131    0.0000 </r>
       <r>    8.2354    0.0000 </r>
       <r>    8.3773    0.0000 </r>
       <r>    8.4472    0.0000 </r>
       <r>    8.4728    0.0000 </r>
       <r>    8.5122    0.0000 </r>
       <r>    8.5615    0.0000 </r>
       <r>    8.6513    0.0000 </r>
       <r>    8.6824    0.0000 </r>
       <r>    8.7707    0.0000 </r>
       <r>    8.8355    0.0000 </r>
       <r>    8.8653    0.0000 </r>
       <r>    8.9293    0.0000 </r>
       <r>    8.9450    0.0000 </r>
       <r>    8.9878    0.0000 </r>
       <r>    9.0639    0.0000 </r>
       <r>    9.0909    0.0000 </r>
       <r>    9.1980    0.0000 </r>
       <r>    9.2532    0.0000 </r>
       <r>    9.2892    0.0000 </r>
       <r>    9.3160    0.0000 </r>
       <r>    9.3502    0.0000 </r>
       <r>    9.3744    0.0000 </r>
       <r>    9.3816    0.0000 </r>
       <r>    9.4744    0.0000 </r>
       <r>    9.5470    0.0000 </r>
       <r>    9.5920    0.0000 </r>
       <r>    9.6340    0.0000 </r>
       <r>    9.6514    0.0000 </r>
       <r>    9.6753    0.0000 </r>
       <r>    9.7290    0.0000 </r>
       <r>    9.7544    0.0000 </r>
       <r>    9.8289    0.0000 </r>
       <r>   12.1131    0.0000 </r>
       <r>   12.1661    0.0000 </r>
       <r>   12.2321    0.0000 </r>
       <r>   12.2970    0.0000 </r>
       <r>   12.3622    0.0000 </r>
       <r>   12.4152    0.0000 </r>
       <r>   12.4510    0.0000 </r>
       <r>   12.5112    0.0000 </r>
      </set>
      <set comment="kpoint 36">
       <r>  -50.2084    1.0000 </r>
       <r>  -50.2076    1.0000 </r>
       <r>  -50.1937    1.0000 </r>
       <r>  -50.1865    1.0000 </r>
       <r>  -50.1780    1.0000 </r>
       <r>  -50.1710    1.0000 </r>
       <r>  -50.1608    1.0000 </r>
       <r>  -50.1563    1.0000 </r>
       <r>  -50.1514    1.0000 </r>
       <r>  -50.1325    1.0000 </r>
       <r>  -26.6275    1.0000 </r>
       <r>  -26.6243    1.0000 </r>
       <r>  -26.6193    1.0000 </r>
       <r>  -26.6127    1.0000 </r>
       <r>  -26.6074    1.0000 </r>
       <r>  -26.6048    1.0000 </r>
       <r>  -26.5941    1.0000 </r>
       <r>  -26.5753    1.0000 </r>
       <r>  -26.5566    1.0000 </r>
       <r>  -26.5476    1.0000 </r>
       <r>  -26.5337    1.0000 </r>
       <r>  -26.5325    1.0000 </r>
       <r>  -26.5267    1.0000 </r>
       <r>  -26.5226    1.0000 </r>
       <r>  -26.5207    1.0000 </r>
       <r>  -26.5031    1.0000 </r>
       <r>  -26.4967    1.0000 </r>
       <r>  -26.4934    1.0000 </r>
       <r>  -26.4856    1.0000 </r>
       <r>  -26.4802    1.0000 </r>
       <r>  -26.4574    1.0000 </r>
       <r>  -26.4513    1.0000 </r>
       <r>  -26.4416    1.0000 </r>
       <r>  -26.4123    1.0000 </r>
       <r>  -26.4070    1.0000 </r>
       <r>  -26.4025    1.0000 </r>
       <r>  -26.3898    1.0000 </r>
       <r>  -26.3622    1.0000 </r>
       <r>  -26.3580    1.0000 </r>
       <r>  -26.3432    1.0000 </r>
       <r>  -13.5167    1.0000 </r>
       <r>  -13.4603    1.0000 </r>
       <r>  -13.1577    1.0000 </r>
       <r>  -13.1037    1.0000 </r>
       <r>  -13.1000    1.0000 </r>
       <r>  -13.0250    1.0000 </r>
       <r>  -12.9876    1.0000 </r>
       <r>  -12.9635    1.0000 </r>
       <r>  -12.7890    1.0000 </r>
       <r>  -12.7558    1.0000 </r>
       <r>  -12.7475    1.0000 </r>
       <r>  -12.7359    1.0000 </r>
       <r>  -12.7358    1.0000 </r>
       <r>  -12.7220    1.0000 </r>
       <r>  -12.6650    1.0000 </r>
       <r>  -12.6587    1.0000 </r>
       <r>  -12.6531    1.0000 </r>
       <r>  -12.6362    1.0000 </r>
       <r>  -12.5771    1.0000 </r>
       <r>  -12.5668    1.0000 </r>
       <r>  -12.5573    1.0000 </r>
       <r>  -12.5481    1.0000 </r>
       <r>  -12.5391    1.0000 </r>
       <r>  -12.5288    1.0000 </r>
       <r>  -12.1597    1.0000 </r>
       <r>  -12.1078    1.0000 </r>
       <r>  -12.0771    1.0000 </r>
       <r>  -12.0566    1.0000 </r>
       <r>  -12.0344    1.0000 </r>
       <r>  -12.0318    1.0000 </r>
       <r>  -12.0221    1.0000 </r>
       <r>  -11.9967    1.0000 </r>
       <r>  -11.9726    1.0000 </r>
       <r>  -11.9566    1.0000 </r>
       <r>  -11.9339    1.0000 </r>
       <r>  -11.9149    1.0000 </r>
       <r>  -11.9074    1.0000 </r>
       <r>  -11.8625    1.0000 </r>
       <r>  -11.8504    1.0000 </r>
       <r>  -11.8305    1.0000 </r>
       <r>  -11.8262    1.0000 </r>
       <r>  -11.8218    1.0000 </r>
       <r>  -11.8146    1.0000 </r>
       <r>  -11.7470    1.0000 </r>
       <r>  -11.6652    1.0000 </r>
       <r>  -11.6393    1.0000 </r>
       <r>  -11.6082    1.0000 </r>
       <r>  -11.6028    1.0000 </r>
       <r>   -1.1362    1.0000 </r>
       <r>   -1.1320    1.0000 </r>
       <r>   -1.1181    1.0000 </r>
       <r>   -1.0759    1.0000 </r>
       <r>   -1.0486    1.0000 </r>
       <r>   -1.0072    1.0000 </r>
       <r>   -0.9902    1.0000 </r>
       <r>   -0.9763    1.0000 </r>
       <r>   -0.9717    1.0000 </r>
       <r>   -0.9683    1.0000 </r>
       <r>   -0.9664    1.0000 </r>
       <r>   -0.9561    1.0000 </r>
       <r>   -0.9532    1.0000 </r>
       <r>   -0.9518    1.0000 </r>
       <r>   -0.9499    1.0000 </r>
       <r>   -0.9471    1.0000 </r>
       <r>   -0.8063    1.0000 </r>
       <r>   -0.7719    1.0000 </r>
       <r>   -0.7664    1.0000 </r>
       <r>   -0.7610    1.0000 </r>
       <r>   -0.7577    1.0000 </r>
       <r>   -0.7129    1.0000 </r>
       <r>   -0.7026    1.0000 </r>
       <r>   -0.6904    1.0000 </r>
       <r>   -0.6696    1.0000 </r>
       <r>   -0.6074    1.0000 </r>
       <r>   -0.5934    1.0000 </r>
       <r>   -0.5796    1.0000 </r>
       <r>   -0.5510    1.0000 </r>
       <r>   -0.5291    1.0000 </r>
       <r>   -0.2987    1.0000 </r>
       <r>   -0.2974    1.0000 </r>
       <r>   -0.2707    1.0000 </r>
       <r>   -0.2694    1.0000 </r>
       <r>    0.0483    1.0000 </r>
       <r>    0.0681    1.0000 </r>
       <r>    0.0847    1.0000 </r>
       <r>    0.0871    1.0000 </r>
       <r>    0.1036    1.0000 </r>
       <r>    0.1106    1.0000 </r>
       <r>    0.2996    1.0000 </r>
       <r>    0.3851    1.0000 </r>
       <r>    0.4342    1.0000 </r>
       <r>    0.4547    1.0000 </r>
       <r>    0.4577    1.0000 </r>
       <r>    0.4698    1.0000 </r>
       <r>    0.4867    1.0000 </r>
       <r>    0.5002    1.0000 </r>
       <r>    0.7457    1.0000 </r>
       <r>    0.7708    1.0000 </r>
       <r>    0.7852    1.0000 </r>
       <r>    0.7981    1.0000 </r>
       <r>    0.8106    1.0000 </r>
       <r>    0.8241    1.0000 </r>
       <r>    0.8645    1.0000 </r>
       <r>    0.8702    1.0000 </r>
       <r>    0.8801    1.0000 </r>
       <r>    0.8858    1.0000 </r>
       <r>    0.8992    1.0000 </r>
       <r>    0.9095    1.0000 </r>
       <r>    1.0332    1.0000 </r>
       <r>    1.0545    1.0000 </r>
       <r>    1.0693    1.0000 </r>
       <r>    1.0773    1.0000 </r>
       <r>    1.0872    1.0000 </r>
       <r>    1.0888    1.0000 </r>
       <r>    1.4825    1.0000 </r>
       <r>    1.4873    1.0000 </r>
       <r>    1.5001    1.0000 </r>
       <r>    1.5153    1.0000 </r>
       <r>    1.5245    1.0000 </r>
       <r>    1.5392    1.0000 </r>
       <r>    1.7368    1.0000 </r>
       <r>    1.7426    1.0000 </r>
       <r>    1.7481    1.0000 </r>
       <r>    1.7711    1.0000 </r>
       <r>    1.7736    1.0000 </r>
       <r>    1.7817    1.0000 </r>
       <r>    2.2382    1.0000 </r>
       <r>    2.2588    1.0000 </r>
       <r>    2.2629    1.0000 </r>
       <r>    2.2737    1.0000 </r>
       <r>    2.2835    1.0000 </r>
       <r>    2.2872    1.0000 </r>
       <r>    2.2951    1.0000 </r>
       <r>    2.3014    1.0000 </r>
       <r>    2.3178    1.0000 </r>
       <r>    2.3247    1.0000 </r>
       <r>    2.3280    1.0000 </r>
       <r>    2.3312    1.0000 </r>
       <r>    2.3447    1.0000 </r>
       <r>    2.3518    1.0000 </r>
       <r>    2.3580    1.0000 </r>
       <r>    2.3620    1.0000 </r>
       <r>    2.3689    1.0000 </r>
       <r>    2.3787    1.0000 </r>
       <r>    2.5896    1.0000 </r>
       <r>    2.6093    1.0000 </r>
       <r>    2.7468    1.0000 </r>
       <r>    2.7581    1.0000 </r>
       <r>    2.7650    1.0000 </r>
       <r>    2.7684    1.0000 </r>
       <r>    2.7796    1.0000 </r>
       <r>    2.7810    1.0000 </r>
       <r>    2.9536    1.0000 </r>
       <r>    2.9559    1.0000 </r>
       <r>    2.9617    1.0000 </r>
       <r>    2.9688    1.0000 </r>
       <r>    2.9748    1.0000 </r>
       <r>    2.9874    1.0000 </r>
       <r>    2.9885    1.0000 </r>
       <r>    2.9948    1.0000 </r>
       <r>    3.0053    1.0000 </r>
       <r>    3.0063    1.0000 </r>
       <r>    3.0150    1.0000 </r>
       <r>    3.0191    1.0000 </r>
       <r>    3.0759    1.0000 </r>
       <r>    3.0797    1.0000 </r>
       <r>    3.1271    1.0000 </r>
       <r>    3.1297    1.0000 </r>
       <r>    3.1342    1.0000 </r>
       <r>    3.1439    1.0000 </r>
       <r>    3.2585    1.0000 </r>
       <r>    3.2630    1.0000 </r>
       <r>    3.2648    1.0000 </r>
       <r>    3.2725    1.0000 </r>
       <r>    3.2753    1.0000 </r>
       <r>    3.2799    1.0000 </r>
       <r>    3.3298    1.0000 </r>
       <r>    3.3378    1.0000 </r>
       <r>    3.3490    1.0000 </r>
       <r>    3.3500    1.0000 </r>
       <r>    3.3590    1.0000 </r>
       <r>    3.3628    1.0000 </r>
       <r>    3.5734    1.0000 </r>
       <r>    3.5839    1.0000 </r>
       <r>    3.5873    1.0000 </r>
       <r>    3.5907    1.0000 </r>
       <r>    3.5965    1.0000 </r>
       <r>    3.6029    1.0000 </r>
       <r>    3.6860    1.0000 </r>
       <r>    3.6868    1.0000 </r>
       <r>    3.7282    1.0000 </r>
       <r>    3.7309    1.0000 </r>
       <r>    7.6282    0.0000 </r>
       <r>    7.6484    0.0000 </r>
       <r>    7.6708    0.0000 </r>
       <r>    7.6938    0.0000 </r>
       <r>    7.7176    0.0000 </r>
       <r>    7.7538    0.0000 </r>
       <r>    7.8424    0.0000 </r>
       <r>    7.8525    0.0000 </r>
       <r>    7.8982    0.0000 </r>
       <r>    7.9227    0.0000 </r>
       <r>    7.9541    0.0000 </r>
       <r>    7.9933    0.0000 </r>
       <r>    8.0599    0.0000 </r>
       <r>    8.0771    0.0000 </r>
       <r>    8.1349    0.0000 </r>
       <r>    8.1640    0.0000 </r>
       <r>    8.1781    0.0000 </r>
       <r>    8.2633    0.0000 </r>
       <r>    8.4949    0.0000 </r>
       <r>    8.5093    0.0000 </r>
       <r>    8.5128    0.0000 </r>
       <r>    8.5641    0.0000 </r>
       <r>    8.6409    0.0000 </r>
       <r>    8.6798    0.0000 </r>
       <r>    8.8363    0.0000 </r>
       <r>    8.8805    0.0000 </r>
       <r>    8.8948    0.0000 </r>
       <r>    8.9211    0.0000 </r>
       <r>    8.9807    0.0000 </r>
       <r>    9.0489    0.0000 </r>
       <r>    9.1039    0.0000 </r>
       <r>    9.1616    0.0000 </r>
       <r>    9.1869    0.0000 </r>
       <r>    9.2889    0.0000 </r>
       <r>    9.3065    0.0000 </r>
       <r>    9.3326    0.0000 </r>
       <r>    9.4073    0.0000 </r>
       <r>    9.4240    0.0000 </r>
       <r>    9.4663    0.0000 </r>
       <r>    9.4976    0.0000 </r>
       <r>    9.5327    0.0000 </r>
       <r>    9.5416    0.0000 </r>
       <r>    9.5801    0.0000 </r>
       <r>    9.6123    0.0000 </r>
       <r>    9.6233    0.0000 </r>
       <r>    9.6560    0.0000 </r>
       <r>    9.7044    0.0000 </r>
       <r>    9.7845    0.0000 </r>
       <r>   12.1724    0.0000 </r>
       <r>   12.2274    0.0000 </r>
       <r>   12.2632    0.0000 </r>
       <r>   12.3754    0.0000 </r>
       <r>   12.4243    0.0000 </r>
       <r>   12.4706    0.0000 </r>
       <r>   12.5028    0.0000 </r>
       <r>   12.5569    0.0000 </r>
      </set>
     </set>
    </set>
   </array>
  </eigenvalues>
  <separator name="orbital magnetization" >
   <v name="MAGDIPOLOUT">      0.00000000      0.00000000      0.00000000</v>
  </separator>
 </calculation>
 <structure name="finalpos" >
  <crystal>
   <varray name="basis" >
    <v>       4.94147203      -2.85179891       8.92727449 </v>
    <v>       0.00202446       5.70442945       8.92641089 </v>
    <v>      -4.93930441      -2.85288505       8.92570998 </v>
   </varray>
   <i name="volume">    754.71068888 </i>
   <varray name="rec_basis" >
    <v>       0.10120714      -0.05844403       0.03732574 </v>
    <v>      -0.00001876       0.11686687       0.03734326 </v>
    <v>      -0.10120611      -0.05842177       0.03735743 </v>
   </varray>
  </crystal>
  <varray name="positions" >
   <v>       0.14167927       0.14218803       0.14245616 </v>
   <v>       0.39321164       0.39231392       0.39332076 </v>
   <v>       0.14249945       0.14308084       0.64322356 </v>
   <v>       0.39341870       0.39271276       0.89285231 </v>
   <v>       0.14235344       0.64198920       0.14250186 </v>
   <v>       0.39258824       0.89247938       0.39232937 </v>
   <v>       0.14264998       0.64147477       0.64209823 </v>
   <v>       0.39282350       0.89341360       0.89250354 </v>
   <v>       0.64240556       0.14282785       0.14146242 </v>
   <v>       0.89257878       0.39393971       0.39299779 </v>
   <v>       0.64247219       0.14222392       0.64198360 </v>
   <v>       0.89316198       0.39362334       0.89196475 </v>
   <v>       0.64253832       0.64306868       0.14258149 </v>
   <v>       0.89219339       0.89241424       0.39363303 </v>
   <v>       0.64314350       0.64239001       0.64334217 </v>
   <v>       0.89293853       0.89258494       0.89351771 </v>
   <v>       0.99968066       0.00135388       0.99695459 </v>
   <v>       0.99933283      -0.00009853       0.49801321 </v>
   <v>       0.25131082       0.24916406       0.74969633 </v>
   <v>       0.99748378       0.49827559       0.00057708 </v>
   <v>       0.00015346       0.49746754       0.50095648 </v>
   <v>       0.50000586       0.99733463       0.00071142 </v>
   <v>       0.49972543       0.50007322       0.99793880 </v>
   <v>       0.75116758       0.74929292       0.24968115 </v>
   <v>       0.49982045       0.50116602       0.49686876 </v>
   <v>       0.74945641       0.75066196       0.74827353 </v>
   <v>       0.04663256       0.19229533       0.35627952 </v>
   <v>       0.35573382       0.04742130       0.19186077 </v>
   <v>       0.19139210       0.35673350       0.04679620 </v>
   <v>       0.44243066       0.29724408       0.10575415 </v>
   <v>       0.10501170       0.44281164       0.29752749 </v>
   <v>       0.29662942       0.10610963       0.44239906 </v>
   <v>       0.04713357       0.19236823       0.85599275 </v>
   <v>       0.35521656       0.04791193       0.69276958 </v>
   <v>       0.19202572       0.35638515       0.54729418 </v>
   <v>       0.44219700       0.29715533       0.60608400 </v>
   <v>       0.10607749       0.44151879       0.79701807 </v>
   <v>       0.29689695       0.10633103       0.94228577 </v>
   <v>       0.04671085       0.69145812       0.35667578 </v>
   <v>       0.35665233       0.54647966       0.19177823 </v>
   <v>       0.19146990       0.85624747       0.04689215 </v>
   <v>       0.44189826       0.79765378       0.10580053 </v>
   <v>       0.10587558       0.94200761       0.29756032 </v>
   <v>       0.29775461       0.60561136       0.44207791 </v>
   <v>       0.04683925       0.69094871       0.85637215 </v>
   <v>       0.35672842       0.54647079       0.69143784 </v>
   <v>       0.19153231       0.85618067       0.54687945 </v>
   <v>       0.44216106       0.79669041       0.60600948 </v>
   <v>       0.10592162       0.94197934       0.79723748 </v>
   <v>       0.29723702       0.60551700       0.94250006 </v>
   <v>       0.54724961       0.19186384       0.35599059 </v>
   <v>       0.85698138       0.04621624       0.19156011 </v>
   <v>       0.69213806       0.35627106       0.04647474 </v>
   <v>       0.94190252       0.29744901       0.10568447 </v>
   <v>       0.60627126       0.44232127       0.29713003 </v>
   <v>       0.79769565       0.10547203       0.44229122 </v>
   <v>       0.54689246       0.19096164       0.85661486 </v>
   <v>       0.85658113       0.04629074       0.69176248 </v>
   <v>       0.69155336       0.35610484       0.54696045 </v>
   <v>       0.94200233       0.29747477       0.60582189 </v>
   <v>       0.60582142       0.44205800       0.79731750 </v>
   <v>       0.79767215       0.10530124       0.94217353 </v>
   <v>       0.54749186       0.69232301       0.35565129 </v>
   <v>       0.85581853       0.54772608       0.19139412 </v>
   <v>       0.69191393       0.85608528       0.04727531 </v>
   <v>       0.94214201       0.79684505       0.10596497 </v>
   <v>       0.60618710       0.94209056       0.29655485 </v>
   <v>       0.79662988       0.60641541       0.44189091 </v>
   <v>       0.54679310       0.69192446       0.85651040 </v>
   <v>       0.85576881       0.54749364       0.69150868 </v>
   <v>       0.69191896       0.85588047       0.54761982 </v>
   <v>       0.94201464       0.79677949       0.60650883 </v>
   <v>       0.60584787       0.94184268       0.79739717 </v>
   <v>       0.79679067       0.60657883       0.94112336 </v>
   <v>       0.24859451       0.25011533       0.24774091 </v>
   <v>       0.24817705       0.74817835       0.24859472 </v>
   <v>       0.24765844       0.74761935       0.74951485 </v>
   <v>       0.74769571       0.24794923       0.24915070 </v>
   <v>       0.49714738       0.99776426       0.50018757 </v>
   <v>       0.74835092       0.24834448       0.74856103 </v>
  </varray>
 </structure>
</modeling>
