 vasp.5.4.4.18Apr17-6-g9f103f2a35 (build Mar 05 2020 17:21:05) complex          
  
 executed on Linux justhpc1_p2018 date 2024.04.10  20:02:02
 running on   72 total cores
 distrk:  each k-point on   72 cores,    1 groups
 distr:  one band on NCORES_PER_BAND=   1 cores,   72 groups


--------------------------------------------------------------------------------------------------------


 INCAR:
 POTCAR:    PAW_PBE Li 17Jan2003                  
 POTCAR:    PAW_PBE Nb_sv 25May2007               
 POTCAR:    PAW_PBE O 08Apr2002                   
 POTCAR:    PAW_PBE Ta 17Jan2003                  

 ----------------------------------------------------------------------------- 
|                                                                             |
|           W    W    AA    RRRRR   N    N  II  N    N   GGGG   !!!           |
|           W    W   A  A   R    R  NN   N  II  NN   N  G    G  !!!           |
|           W    W  A    A  R    R  N N  N  II  N N  N  G       !!!           |
|           W WW W  AAAAAA  RRRRR   N  N N  II  N  N N  G  GGG   !            |
|           WW  WW  A    A  R   R   N   NN  II  N   NN  G    G                |
|           W    W  A    A  R    R  N    N  II  N    N   GGGG   !!!           |
|                                                                             |
|      For optimal performance we recommend to set                            |
|        NCORE= 4 - approx SQRT( number of cores)                             |
|      NCORE specifies how many cores store one orbital (NPAR=cpu/NCORE).     |
|      This setting can  greatly improve the performance of VASP for DFT.     |
|      The default,   NCORE=1            might be grossly inefficient         |
|      on modern multi-core architectures or massively parallel machines.     |
|      Do your own testing !!!!                                               |
|      Unfortunately you need to use the default for GW and RPA calculations. |
|      (for HF NCORE is supported but not extensively tested yet)             |
|                                                                             |
 ----------------------------------------------------------------------------- 

 POTCAR:    PAW_PBE Li 17Jan2003                  
  local pseudopotential read in
  partial core-charges read in
  partial kinetic energy density read in
  atomic valenz-charges read in
  non local Contribution for L=           0  read in
    real space projection operators read in
  non local Contribution for L=           0  read in
    real space projection operators read in
  non local Contribution for L=           1  read in
    real space projection operators read in
    PAW grid and wavefunctions read in
 
   number of l-projection  operators is LMAX  =           3
   number of lm-projection operators is LMMAX =           5
 
 POTCAR:    PAW_PBE Nb_sv 25May2007               
  local pseudopotential read in
  partial core-charges read in
  partial kinetic energy density read in
  atomic valenz-charges read in
  non local Contribution for L=           0  read in
    real space projection operators read in
  non local Contribution for L=           0  read in
    real space projection operators read in
  non local Contribution for L=           1  read in
    real space projection operators read in
  non local Contribution for L=           1  read in
    real space projection operators read in
  non local Contribution for L=           2  read in
    real space projection operators read in
  non local Contribution for L=           2  read in
    real space projection operators read in
    PAW grid and wavefunctions read in
 
   number of l-projection  operators is LMAX  =           6
   number of lm-projection operators is LMMAX =          18
 
 POTCAR:    PAW_PBE O 08Apr2002                   
  local pseudopotential read in
  partial core-charges read in
  partial kinetic energy density read in
  kinetic energy density of atom read in
  atomic valenz-charges read in
  non local Contribution for L=           0  read in
    real space projection operators read in
  non local Contribution for L=           0  read in
    real space projection operators read in
  non local Contribution for L=           1  read in
    real space projection operators read in
  non local Contribution for L=           1  read in
    real space projection operators read in
    PAW grid and wavefunctions read in
 
   number of l-projection  operators is LMAX  =           4
   number of lm-projection operators is LMMAX =           8
 
 POTCAR:    PAW_PBE Ta 17Jan2003                  
  local pseudopotential read in
  partial core-charges read in
  partial kinetic energy density read in
  atomic valenz-charges read in
  non local Contribution for L=           2  read in
    real space projection operators read in
  non local Contribution for L=           2  read in
    real space projection operators read in
  non local Contribution for L=           0  read in
    real space projection operators read in
  non local Contribution for L=           0  read in
    real space projection operators read in
  non local Contribution for L=           1  read in
    real space projection operators read in
  non local Contribution for L=           1  read in
    real space projection operators read in
    PAW grid and wavefunctions read in
 
   number of l-projection  operators is LMAX  =           6
   number of lm-projection operators is LMMAX =          18
 
 Optimization of the real space projectors (new method)

 maximal supplied QI-value         = 18.33
 optimisation between [QCUT,QGAM] = [ 11.00, 22.18] = [ 33.87,137.76] Ry 
 Optimized for a Real-space Cutoff    1.27 Angstroem

   l    n(q)    QCUT    max X(q) W(low)/X(q) W(high)/X(q)  e(spline) 
   0      8    10.998    33.825    0.29E-04    0.16E-03    0.54E-07
   0      8    10.998     8.944    0.19E-04    0.12E-03    0.42E-07
   1      8    10.998     4.214    0.16E-03    0.32E-04    0.49E-07
 Optimization of the real space projectors (new method)

 maximal supplied QI-value         = 15.68
 optimisation between [QCUT,QGAM] = [ 11.14, 22.27] = [ 34.73,138.91] Ry 
 Optimized for a Real-space Cutoff    1.75 Angstroem

   l    n(q)    QCUT    max X(q) W(low)/X(q) W(high)/X(q)  e(spline) 
   0     12    11.136    10.201    0.25E-04    0.67E-06    0.52E-07
   0     12    11.136     8.174    0.39E-04    0.20E-05    0.97E-07
   1     11    11.136     3.488    0.15E-05    0.92E-05    0.13E-06
   1     11    11.136     4.917    0.87E-05    0.65E-04    0.82E-06
   2     11    11.136   153.744    0.20E-03    0.19E-03    0.13E-05
   2     11    11.136   126.342    0.20E-03    0.19E-03    0.13E-05
 Optimization of the real space projectors (new method)

 maximal supplied QI-value         = 24.76
 optimisation between [QCUT,QGAM] = [ 11.14, 22.28] = [ 34.75,139.00] Ry 
 Optimized for a Real-space Cutoff    1.19 Angstroem

   l    n(q)    QCUT    max X(q) W(low)/X(q) W(high)/X(q)  e(spline) 
   0      8    11.140    20.381    0.23E-03    0.52E-03    0.22E-06
   0      8    11.140    15.268    0.24E-03    0.55E-03    0.24E-06
   1      7    11.140     5.964    0.11E-03    0.44E-03    0.26E-06
   1      7    11.140     5.382    0.84E-04    0.37E-03    0.23E-06
 Optimization of the real space projectors (new method)

 maximal supplied QI-value         = 12.85
 optimisation between [QCUT,QGAM] = [ 11.05, 22.23] = [ 34.20,138.39] Ry 
 Optimized for a Real-space Cutoff    1.65 Angstroem

   l    n(q)    QCUT    max X(q) W(low)/X(q) W(high)/X(q)  e(spline) 
   2     10    11.051    62.315    0.21E-03    0.15E-03    0.40E-06
   2     10    11.051    52.185    0.21E-03    0.15E-03    0.40E-06
   0     11    11.051   103.837    0.25E-04    0.82E-06    0.35E-06
   0     11    11.051    59.728    0.19E-04    0.76E-06    0.31E-06
   1     11    11.051    13.958    0.72E-04    0.92E-04    0.65E-06
   1     11    11.051     8.441    0.56E-04    0.61E-04    0.46E-06

 ----------------------------------------------------------------------------- 
|                                                                             |
|  ADVICE TO THIS USER RUNNING 'VASP/VAMP'   (HEAR YOUR MASTER'S VOICE ...):  |
|                                                                             |
|      You enforced a specific xc-type in the INCAR file,                     |
|      a different type was found on the POTCAR file                          |
|          I HOPE YOU KNOW, WHAT YOU ARE  DOING                               |
|                                                                             |
 ----------------------------------------------------------------------------- 

  PAW_PBE Li 17Jan2003                  :
 energy of atom  1       EATOM=   -5.3001
 kinetic energy error for atom=    0.0000 (will be added to EATOM!!)
  PAW_PBE Nb_sv 25May2007               :
 energy of atom  2       EATOM=-1555.1913
 kinetic energy error for atom=    0.0086 (will be added to EATOM!!)
  PAW_PBE O 08Apr2002                   :
 energy of atom  3       EATOM= -432.3788
 kinetic energy error for atom=    0.0273 (will be added to EATOM!!)
  PAW_PBE Ta 17Jan2003                  :
 energy of atom  4       EATOM= -130.6506
 kinetic energy error for atom=    0.0015 (will be added to EATOM!!)
 
 
 POSCAR: Li Nb  O Ta + 10 %                      
  positions in direct lattice
  velocities in cartesian coordinates
 exchange correlation table for  LEXCH =       14
   RHO(1)=    0.500       N(1)  =     2000
   RHO(2)=  100.500       N(2)  =     4000
 


--------------------------------------------------------------------------------------------------------


 ion  position               nearest neighbor table
   1  0.138  0.139  0.140-  38 2.09  43 2.09  54 2.09  27 2.35  29 2.35  28 2.36  75 3.12  18 3.13
                            20 3.14  22 3.16
   2  0.391  0.390  0.391-  51 2.10  35 2.11  40 2.12  55 2.32  44 2.32  36 2.33  25 3.09  78 3.12
                            76 3.14  19 3.14
   3  0.140  0.140  0.641-  32 2.11  60 2.11  49 2.11  33 2.32  34 2.32  35 2.33  17 3.12  19 3.12
                            21 3.13  79 3.13
   4  0.392  0.391  0.891-  57 2.11  46 2.12  29 2.12  61 2.31  50 2.31  30 2.32  23 3.08  80 3.13
                            77 3.13  75 3.13
   5  0.140  0.639  0.140-  31 2.09  50 2.10  66 2.10  40 2.34  39 2.35  41 2.35  76 3.09  23 3.15
                            21 3.16  17 3.17
   6  0.390  0.890  0.390-  63 2.10  28 2.10  47 2.11  48 2.33  32 2.33  67 2.34  79 3.07  77 3.15
                            75 3.15  24 3.16
   7  0.140  0.639  0.639-  44 2.09  37 2.09  72 2.10  46 2.34  45 2.35  47 2.35  77 3.09  25 3.15
                            18 3.17  20 3.17
   8  0.391  0.891  0.890-  34 2.10  69 2.11  41 2.12  73 2.32  42 2.32  38 2.33  22 3.09  19 3.13
                            76 3.14  26 3.14
   9  0.640  0.141  0.139-  30 2.09  62 2.09  67 2.10  53 2.34  52 2.35  51 2.35  78 3.09  23 3.15
                            17 3.15  79 3.17
  10  0.891  0.392  0.391-  59 2.12  64 2.12  27 2.12  68 2.31  31 2.31  60 2.31  21 3.08  24 3.13
                            80 3.13  75 3.14
  11  0.640  0.140  0.639-  56 2.09  36 2.09  73 2.10  58 2.34  59 2.34  57 2.35  80 3.09  18 3.14
                            25 3.17  22 3.17
  12  0.891  0.392  0.890-  70 2.11  33 2.11  53 2.12  74 2.31  37 2.31  54 2.32  20 3.07  26 3.15
                            78 3.15  19 3.16
  13  0.640  0.641  0.140-  42 2.10  55 2.11  74 2.11  64 2.33  65 2.33  63 2.33  25 3.12  22 3.13
                            24 3.13  20 3.13
  14  0.890  0.890  0.392-  71 2.10  39 2.11  52 2.11  56 2.32  72 2.33  43 2.34  18 3.09  26 3.12
                            78 3.14  76 3.14
  15  0.641  0.640  0.641-  61 2.11  68 2.11  48 2.12  70 2.32  71 2.32  69 2.32  26 3.09  23 3.12
                            79 3.14  21 3.15
  16  0.891  0.891  0.891-  65 2.11  58 2.12  45 2.12  62 2.31  49 2.31  66 2.32  17 3.08  77 3.13
                            80 3.14  24 3.14
  17  1.000  0.002  0.997-  33 1.94  52 1.96  41 1.96  49 2.15  62 2.15  66 2.19  16 3.08   3 3.12
                             9 3.15   5 3.17
  18  0.999  0.000  0.498-  27 1.95  47 1.96  58 1.96  43 2.14  56 2.14  72 2.17  14 3.09   1 3.13
                            11 3.14   7 3.17
  19  0.252  0.249  0.750-  36 1.94  38 1.94  37 1.95  34 2.15  35 2.18  33 2.19   3 3.12   8 3.13
                             2 3.14  12 3.16
  20  0.997  0.498  0.001-  64 1.94  29 1.96  45 1.97  54 2.14  74 2.16  37 2.17  12 3.07  13 3.13
                             1 3.14   7 3.17
  21  0.001  0.497  0.501-  35 1.94  70 1.95  39 1.97  60 2.15  31 2.16  68 2.19  10 3.08   3 3.13
                            15 3.15   5 3.16
  22  0.500  0.997  0.001-  65 1.94  28 1.96  57 1.96  42 2.14  73 2.17  38 2.17   8 3.09  13 3.13
                             1 3.16  11 3.17
  23  0.500  0.500  0.998-  69 1.94  53 1.96  40 1.96  61 2.15  50 2.15  30 2.17   4 3.08  15 3.12
                             9 3.15   5 3.15
  24  0.751  0.749  0.250-  68 1.94  66 1.94  67 1.95  64 2.17  65 2.18  63 2.18  13 3.13  10 3.13
                            16 3.14   6 3.16
  25  0.500  0.501  0.497-  63 1.94  59 1.96  46 1.96  55 2.14  44 2.15  36 2.18   2 3.09  13 3.12
                             7 3.15  11 3.17
  26  0.749  0.751  0.748-  72 1.95  73 1.95  74 1.96  71 2.15  70 2.17  69 2.17  15 3.09  14 3.12
                             8 3.14  12 3.15
  27  0.056  0.181  0.361-  18 1.95  10 2.12  75 2.15   1 2.35
  28  0.361  0.056  0.181-  22 1.96   6 2.10  75 2.15   1 2.36
  29  0.181  0.360  0.056-  20 1.96   4 2.12  75 2.14   1 2.35
  30  0.432  0.306  0.110-  75 1.96   9 2.09  23 2.17   4 2.32
  31  0.109  0.432  0.306-  75 1.97   5 2.09  21 2.16  10 2.31
  32  0.306  0.110  0.431-  75 1.98   3 2.11  79 2.13   6 2.33
  33  0.055  0.182  0.860-  17 1.94  12 2.11  19 2.19   3 2.32
  34  0.359  0.056  0.682-  79 1.97   8 2.10  19 2.15   3 2.32
  35  0.182  0.361  0.556-  21 1.94   2 2.11  19 2.18   3 2.33
  36  0.432  0.305  0.611-  19 1.94  11 2.09  25 2.18   2 2.33
  37  0.111  0.431  0.805-  19 1.95   7 2.09  20 2.17  12 2.31
  38  0.305  0.111  0.932-  19 1.94   1 2.09  22 2.17   8 2.33
  39  0.056  0.681  0.361-  21 1.97  14 2.11  76 2.14   5 2.35
  40  0.361  0.556  0.181-  23 1.96   2 2.12  76 2.14   5 2.34
  41  0.180  0.861  0.056-  17 1.96   8 2.12  76 2.14   5 2.35
  42  0.431  0.807  0.110-  76 1.98  13 2.10  22 2.14   8 2.32
  43  0.110  0.931  0.306-  76 1.97   1 2.09  18 2.14  14 2.34
  44  0.306  0.610  0.431-  76 1.97   7 2.09  25 2.15   2 2.32
  45  0.056  0.680  0.861-  20 1.97  16 2.12  77 2.13   7 2.35
  46  0.361  0.556  0.680-  25 1.96   4 2.12  77 2.14   7 2.34
  47  0.181  0.861  0.556-  18 1.96   6 2.11  77 2.15   7 2.35
  48  0.431  0.806  0.610-  77 1.98  15 2.12  79 2.13   6 2.33
  49  0.110  0.931  0.807-  77 1.97   3 2.11  17 2.15  16 2.31
  50  0.306  0.610  0.932-  77 1.97   5 2.10  23 2.15   4 2.31
  51  0.557  0.181  0.360-  79 1.99   2 2.10  78 2.12   9 2.35
  52  0.861  0.056  0.181-  17 1.96  14 2.11  78 2.14   9 2.35
  53  0.681  0.361  0.056-  23 1.96  12 2.12  78 2.14   9 2.34
  54  0.931  0.306  0.110-  78 1.98   1 2.09  20 2.14  12 2.32
  55  0.610  0.431  0.306-  78 1.97  13 2.11  25 2.14   2 2.32
  56  0.807  0.110  0.431-  78 1.97  11 2.09  18 2.14  14 2.32
  57  0.556  0.180  0.861-  22 1.96   4 2.11  80 2.14  11 2.35
  58  0.861  0.056  0.681-  18 1.96  16 2.12  80 2.14  11 2.34
  59  0.681  0.361  0.556-  25 1.96  10 2.12  80 2.14  11 2.34
  60  0.931  0.306  0.610-  80 1.97   3 2.11  21 2.15  10 2.31
  61  0.610  0.431  0.806-  80 1.97  15 2.11  23 2.15   4 2.31
  62  0.806  0.109  0.931-  80 1.97   9 2.09  17 2.15  16 2.31
  63  0.556  0.682  0.360-  25 1.94   6 2.10  24 2.18  13 2.33
  64  0.860  0.556  0.180-  20 1.94  10 2.12  24 2.17  13 2.33
  65  0.681  0.860  0.056-  22 1.94  16 2.11  24 2.18  13 2.33
  66  0.931  0.805  0.111-  24 1.94   5 2.10  17 2.19  16 2.32
  67  0.611  0.932  0.305-  24 1.95   9 2.10  79 2.15   6 2.34
  68  0.805  0.611  0.431-  24 1.94  15 2.11  21 2.19  10 2.31
  69  0.556  0.681  0.861-  23 1.94   8 2.11  26 2.17  15 2.32
  70  0.861  0.556  0.681-  21 1.95  12 2.11  26 2.17  15 2.32
  71  0.681  0.860  0.557-  79 1.98  14 2.10  26 2.15  15 2.32
  72  0.931  0.805  0.611-  26 1.95   7 2.10  18 2.17  14 2.33
  73  0.610  0.931  0.806-  26 1.95  11 2.10  22 2.17   8 2.32
  74  0.806  0.611  0.930-  26 1.96  13 2.11  20 2.16  12 2.31
  75  0.249  0.250  0.248-  30 1.96  31 1.97  32 1.98  29 2.14  28 2.15  27 2.15   1 3.12   4 3.13
                            10 3.14   6 3.15
  76  0.248  0.748  0.248-  43 1.97  44 1.97  42 1.98  40 2.14  39 2.14  41 2.14   5 3.09   2 3.14
                             8 3.14  14 3.14
  77  0.248  0.747  0.749-  50 1.97  49 1.97  48 1.98  45 2.13  46 2.14  47 2.15   7 3.09  16 3.13
                             4 3.13   6 3.15
  78  0.747  0.248  0.249-  56 1.97  55 1.97  54 1.98  51 2.12  53 2.14  52 2.14   9 3.09   2 3.12
                            14 3.14  12 3.15
  79  0.497  0.998  0.500-  34 1.97  71 1.98  51 1.99  48 2.13  32 2.13  67 2.15   6 3.07   3 3.13
                            15 3.14   9 3.17
  80  0.748  0.248  0.748-  61 1.97  60 1.97  62 1.97  59 2.14  58 2.14  57 2.14  11 3.09   4 3.13
                            10 3.13  16 3.14
 
  Warning from LATTYP: Got some problem with cell dimensions!
  Tried to take original basis but could not verify dimensions!
  LATTYP: Found a triclinic cell.
 ALAT       =    18.7608581698
 B/A-ratio  =     0.5647103122
 C/A-ratio  =     0.6016367188
 COS(alpha) =     0.0001983670
 COS(beta)  =     0.3367853441
 COS(gamma) =     0.8471333656
  
  Lattice vectors:
  
 A1 = ( -10.5960291195,  12.2332443851,  -9.4890304025)
 A2 = (  -5.2967424027,   9.1753414916,  -0.0008875882)
 A3 = (   5.2966044733,   3.0592922113,  -9.4862043797)


Analysis of symmetry for initial positions (statically):
=====================================================================
 Subroutine PRICEL returns:
 Original cell was already a primitive cell.
 

 Routine SETGRP: Setting up the symmetry group for a 
 triclinic supercell.


 Subroutine GETGRP returns: Found  1 space group operations
 (whereof  1 operations were pure point group operations)
 out of a pool of  2 trial point group operations.


The static configuration has the point symmetry C_1 .


Analysis of symmetry for dynamics (positions and initial velocities):
=====================================================================
 Subroutine PRICEL returns:
 Original cell was already a primitive cell.
 

 Routine SETGRP: Setting up the symmetry group for a 
 triclinic supercell.


 Subroutine GETGRP returns: Found  1 space group operations
 (whereof  1 operations were pure point group operations)
 out of a pool of  2 trial point group operations.


The dynamic configuration has the point symmetry C_1 .


 Subroutine INISYM returns: Found  1 space group operations
 (whereof  1 operations are pure point group operations),
 and found     1 'primitive' translations

 
 
 KPOINTS: Autom                                   

Automatic generation of k-mesh.
Space group operators:
 irot       det(A)        alpha          n_x          n_y          n_z        tau_x        tau_y        tau_z
    1     1.000000     0.000000     1.000000     0.000000     0.000000     0.000000     0.000000     0.000000
 
 Subroutine IBZKPT returns following result:
 ===========================================
 
 Found     36 irreducible k-points:
 
 Following reciprocal coordinates:
            Coordinates               Weight
  0.000000  0.000000  0.000000      1.000000
  0.250000  0.000000  0.000000      2.000000
  0.500000  0.000000  0.000000      1.000000
  0.000000  0.250000  0.000000      2.000000
  0.250000  0.250000  0.000000      2.000000
  0.500000  0.250000 -0.000000      2.000000
 -0.250000  0.250000 -0.000000      2.000000
  0.000000  0.500000  0.000000      1.000000
  0.250000  0.500000 -0.000000      2.000000
  0.500000  0.500000  0.000000      1.000000
  0.000000  0.000000  0.250000      2.000000
  0.250000 -0.000000  0.250000      2.000000
  0.500000 -0.000000  0.250000      2.000000
 -0.250000  0.000000  0.250000      2.000000
  0.000000  0.250000  0.250000      2.000000
  0.250000  0.250000  0.250000      2.000000
  0.500000  0.250000  0.250000      2.000000
 -0.250000  0.250000  0.250000      2.000000
  0.000000  0.500000  0.250000      2.000000
  0.250000  0.500000  0.250000      2.000000
  0.500000  0.500000  0.250000      2.000000
 -0.250000  0.500000  0.250000      2.000000
 -0.000000 -0.250000  0.250000      2.000000
  0.250000 -0.250000  0.250000      2.000000
  0.500000 -0.250000  0.250000      2.000000
 -0.250000 -0.250000  0.250000      2.000000
  0.000000  0.000000  0.500000      1.000000
  0.250000 -0.000000  0.500000      2.000000
  0.500000 -0.000000  0.500000      1.000000
  0.000000  0.250000  0.500000      2.000000
  0.250000  0.250000  0.500000      2.000000
  0.500000  0.250000  0.500000      2.000000
 -0.250000  0.250000  0.500000      2.000000
  0.000000  0.500000  0.500000      1.000000
  0.250000  0.500000  0.500000      2.000000
  0.500000  0.500000  0.500000      1.000000
 
 Following cartesian coordinates:
            Coordinates               Weight
  0.000000  0.000000  0.000000      1.000000
  0.024356 -0.014065  0.009063      2.000000
  0.048712 -0.028131  0.018126      1.000000
 -0.000005  0.028124  0.009067      2.000000
  0.024351  0.014059  0.018130      2.000000
  0.048706 -0.000007  0.027193      2.000000
 -0.024361  0.042190  0.000004      2.000000
 -0.000011  0.056249  0.018134      1.000000
  0.024345  0.042183  0.027197      2.000000
  0.048701  0.028118  0.036260      1.000000
 -0.024355 -0.014059  0.009072      2.000000
  0.000000 -0.028125  0.018135      2.000000
  0.024356 -0.042190  0.027198      2.000000
 -0.048711  0.000006  0.000009      2.000000
 -0.024361  0.014065  0.018139      2.000000
 -0.000005 -0.000000  0.027202      2.000000
  0.024351 -0.014066  0.036265      2.000000
 -0.048717  0.028131  0.009076      2.000000
 -0.024366  0.042189  0.027206      2.000000
 -0.000010  0.028124  0.036269      2.000000
  0.024346  0.014059  0.045332      2.000000
 -0.048722  0.056255  0.018143      2.000000
 -0.024350 -0.042183  0.000005      2.000000
  0.000006 -0.056249  0.009068      2.000000
  0.024362 -0.070314  0.018131      2.000000
 -0.048706 -0.028118 -0.009058      2.000000
 -0.048711 -0.028118  0.018144      1.000000
 -0.024355 -0.042184  0.027207      2.000000
  0.000001 -0.056249  0.036270      1.000000
 -0.048716  0.000006  0.027211      2.000000
 -0.024360 -0.014059  0.036274      2.000000
 -0.000005 -0.028125  0.045337      2.000000
 -0.073072  0.014072  0.018148      2.000000
 -0.048722  0.028130  0.036278      1.000000
 -0.024366  0.014065  0.045341      2.000000
 -0.000010 -0.000000  0.054404      1.000000
 
 TETIRR: Found    192 inequivalent tetrahedra from      384


--------------------------------------------------------------------------------------------------------




 Dimension of arrays:
   k-points           NKPTS =     36   k-points in BZ     NKDIM =     36   number of bands    NBANDS=    288
   number of dos      NEDOS =    301   number of ions     NIONS =     80
   non local maximal  LDIM  =      6   non local SUM 2l+1 LMDIM =     18
   total plane-waves  NPLWV = 512000
   max r-space proj   IRMAX =  12588   max aug-charges    IRDMAX=  37979
   dimension x,y,z NGX =    80 NGY =   80 NGZ =   80
   dimension x,y,z NGXF=   160 NGYF=  160 NGZF=  160
   support grid    NGXF=   160 NGYF=  160 NGZF=  160
   ions per type =              16  10  48   6
   NGX,Y,Z   is equivalent  to a cutoff of  11.78, 11.78, 11.78 a.u.
   NGXF,Y,Z  is equivalent  to a cutoff of  23.56, 23.56, 23.57 a.u.

 SYSTEM =  Li(NbTa)O_3                             
 POSCAR =  Li Nb  O Ta + 10 %                      

 Startparameter for this run:
   NWRITE =      0    write-flag & timer
   PREC   = accura    normal or accurate (medium, high low for compatibility)
   ISTART =      0    job   : 0-new  1-cont  2-samecut
   ICHARG =      2    charge: 1-file 2-atom 10-const
   ISPIN  =      1    spin polarized calculation?
   LNONCOLLINEAR =      F non collinear calculations
   LSORBIT =      F    spin-orbit coupling
   INIWAV =      1    electr: 0-lowe 1-rand  2-diag
   LASPH  =      F    aspherical Exc in radial PAW
   METAGGA=      F    non-selfconsistent MetaGGA calc.

 Electronic Relaxation 1
   ENCUT  =  475.0 eV  34.91 Ry    5.91 a.u.  20.06 20.06 20.06*2*pi/ulx,y,z
   ENINI  =  475.0     initial cutoff
   ENAUG  =  605.4 eV  augmentation charge cutoff
   NELM   =   1000;   NELMIN=  4; NELMDL= -5     # of ELM steps 
   EDIFF  = 0.1E-05   stopping-criterion for ELM
   LREAL  =      T    real-space projection
   NLSPLINE    = F    spline interpolate recip. space projectors
   LCOMPAT=      F    compatible to vasp.4.4
   GGA_COMPAT  = T    GGA compatible to vasp.4.4-vasp.4.6
   LMAXPAW     = -100 max onsite density
   LMAXMIX     =    2 max onsite mixed and CHGCAR
   VOSKOWN=      0    Vosko Wilk Nusair interpolation
   ROPT   =   -0.00025  -0.00025  -0.00025  -0.00025
 Ionic relaxation
   EDIFFG = -.5E-02   stopping-criterion for IOM
   NSW    =    200    number of steps for IOM
   NBLOCK =      1;   KBLOCK =    200    inner block; outer block 
   IBRION =      1    ionic relax: 0-MD 1-quasi-New 2-CG
   NFREE  =      0    steps in history (QN), initial steepest desc. (CG)
   ISIF   =      4    stress and relaxation
   IWAVPR =     11    prediction:  0-non 1-charg 2-wave 3-comb
   ISYM   =      2    0-nonsym 1-usesym 2-fastsym
   LCORR  =      T    Harris-Foulkes like correction to forces

   POTIM  = 0.1500    time-step for ionic-motion
   TEIN   =    0.0    initial temperature
   TEBEG  =    0.0;   TEEND  =   0.0 temperature during run
   SMASS  =  -3.00    Nose mass-parameter (am)
   estimated Nose-frequenzy (Omega)   =  0.10E-29 period in steps =****** mass=  -0.291E-26a.u.
   SCALEE = 1.0000    scale energy and forces
   NPACO  =    256;   APACO  = 16.0  distance and # of slots for P.C.
   PSTRESS=    0.0 pullay stress

  Mass of Ions in am
   POMASS =   7.01 92.91 16.00180.95
  Ionic Valenz
   ZVAL   =   1.00 13.00  6.00  5.00
  Atomic Wigner-Seitz radii
   RWIGS  =  -1.00 -1.00 -1.00 -1.00
  virtual crystal weights 
   VCA    =   1.00  1.00  1.00  1.00
   NELECT =     464.0000    total number of electrons
   NUPDOWN=      -1.0000    fix difference up-down

 DOS related values:
   EMIN   =  10.00;   EMAX   =-10.00  energy-range for DOS
   EFERMI =   0.00
   ISMEAR =    -5;   SIGMA  =   0.05  broadening in eV -4-tet -1-fermi 0-gaus

 Electronic relaxation 2 (details)
   IALGO  =     68    algorithm
   LDIAG  =      T    sub-space diagonalisation (order eigenvalues)
   LSUBROT=      F    optimize rotation matrix (better conditioning)
   TURBO    =      0    0=normal 1=particle mesh
   IRESTART =      0    0=no restart 2=restart with 2 vectors
   NREBOOT  =      0    no. of reboots
   NMIN     =      0    reboot dimension
   EREF     =   0.00    reference energy to select bands
   IMIX   =      4    mixing-type and parameters
     AMIX     =   0.40;   BMIX     =  1.00
     AMIX_MAG =   1.60;   BMIX_MAG =  1.00
     AMIN     =   0.10
     WC   =   100.;   INIMIX=   1;  MIXPRE=   1;  MAXMIX= -45

 Intra band minimization:
   WEIMIN = 0.0010     energy-eigenvalue tresh-hold
   EBREAK =  0.87E-09  absolut break condition
   DEPER  =   0.30     relativ break condition  

   TIME   =   0.40     timestep for ELM

  volume/ion in A,a.u.               =      11.53        77.81
  Fermi-wavevector in a.u.,A,eV,Ry     =   1.301979  2.460383 23.063902  1.695149
  Thomas-Fermi vector in A             =   2.433077
 
 Write flags
   LWAVE        =      F    write WAVECAR
   LDOWNSAMPLE  =      F    k-point downsampling of WAVECAR
   LCHARG       =      F    write CHGCAR
   LVTOT        =      F    write LOCPOT, total local potential
   LVHAR        =      F    write LOCPOT, Hartree potential only
   LELF         =      F    write electronic localiz. function (ELF)
   LORBIT       =      0    0 simple, 1 ext, 2 COOP (PROOUT), +10 PAW based schemes


 Dipole corrections
   LMONO  =      F    monopole corrections only (constant potential shift)
   LDIPOL =      F    correct potential (dipole corrections)
   IDIPOL =      0    1-x, 2-y, 3-z, 4-all directions 
   EPSILON=  1.0000000 bulk dielectric constant

 Exchange correlation treatment:
   GGA     =    PS    GGA type
   LEXCH   =    14    internal setting for exchange type
   VOSKOWN=      0    Vosko Wilk Nusair interpolation
   LHFCALC =     F    Hartree Fock is set to
   LHFONE  =     F    Hartree Fock one center treatment
   AEXX    =    0.0000 exact exchange contribution

 Linear response parameters
   LEPSILON=     F    determine dielectric tensor
   LRPA    =     F    only Hartree local field effects (RPA)
   LNABLA  =     F    use nabla operator in PAW spheres
   LVEL    =     F    velocity operator in full k-point grid
   LINTERFAST=   F  fast interpolation
   KINTER  =     0    interpolate to denser k-point grid
   CSHIFT  =0.1000    complex shift for real part using Kramers Kronig
   OMEGAMAX=  -1.0    maximum frequency
   DEG_THRESHOLD= 0.2000000E-02 threshold for treating states as degnerate
   RTIME   =   -0.100 relaxation time in fs
  (WPLASMAI=    0.000 imaginary part of plasma frequency in eV, 0.658/RTIME)
   DFIELD  = 0.0000000 0.0000000 0.0000000 field for delta impulse in time
 
 Orbital magnetization related:
   ORBITALMAG=     F  switch on orbital magnetization
   LCHIMAG   =     F  perturbation theory with respect to B field
   DQ        =  0.001000  dq finite difference perturbation B field
   LLRAUG    =     F  two centre corrections for induced B field



--------------------------------------------------------------------------------------------------------


 quasi-Newton-method for relaxation of ions
 charge density and potential will be updated during run
 non-spin polarized calculation
 RMM-DIIS sequential band-by-band and
  variant of blocked Davidson during initial phase
 perform sub-space diagonalisation
    before iterative eigenvector-optimisation
 modified Broyden-mixing scheme, WC =      100.0
 initial mixing is a Kerker type mixing with AMIX =  0.4000 and BMIX =      1.0000
 Hartree-type preconditioning will be used
 using additional bands           56
 real space projection scheme for non local part
 use partial core corrections
 calculate Harris-corrections to forces 
   (improved forces if not selfconsistent)
 use gradient corrections 
 use of overlap-Matrix (Vanderbilt PP)
 Fermi weights with tetrahedron method with Bloechl corrections


--------------------------------------------------------------------------------------------------------


  energy-cutoff  :      475.00
  volume of cell :      922.42
      direct lattice vectors                 reciprocal lattice vectors
     5.299286717 -3.057902893  9.488142814     0.094376927 -0.054502447  0.035118192
     0.002544314  6.117438598  9.487255226    -0.000020717  0.108979209  0.035134128
    -5.296604473 -3.059292211  9.486204380    -0.094375493 -0.054477697  0.035152853

  length of vectors
    11.289732675 11.288537248 11.287221151     0.114502438  0.114502730  0.114500115


 
 k-points in units of 2pi/SCALE and weight: Autom                                   
   0.00000000  0.00000000  0.00000000       0.016
   0.02435586 -0.01406545  0.00906295       0.031
   0.04871171 -0.02813090  0.01812591       0.016
  -0.00000535  0.02812427  0.00906707       0.031
   0.02435051  0.01405882  0.01813002       0.031
   0.04870637 -0.00000663  0.02719297       0.031
  -0.02436120  0.04218972  0.00000411       0.031
  -0.00001069  0.05624853  0.01813413       0.016
   0.02434516  0.04218309  0.02719708       0.031
   0.04870102  0.02811764  0.03626004       0.016
  -0.02435549 -0.01405906  0.00907190       0.031
   0.00000037 -0.02812451  0.01813485       0.031
   0.02435623 -0.04218996  0.02719780       0.031
  -0.04871134  0.00000639  0.00000895       0.031
  -0.02436083  0.01406521  0.01813896       0.031
  -0.00000498 -0.00000024  0.02720192       0.031
   0.02435088 -0.01406569  0.03626487       0.031
  -0.04871669  0.02813065  0.00907601       0.031
  -0.02436618  0.04218947  0.02720603       0.031
  -0.00001032  0.02812403  0.03626898       0.031
   0.02434553  0.01405858  0.04533193       0.031
  -0.04872204  0.05625492  0.01814308       0.031
  -0.02435014 -0.04218333  0.00000483       0.031
   0.00000572 -0.05624878  0.00906779       0.031
   0.02436157 -0.07031422  0.01813074       0.031
  -0.04870600 -0.02811788 -0.00905812       0.031
  -0.04871097 -0.02811812  0.01814380       0.016
  -0.02435512 -0.04218357  0.02720675       0.031
   0.00000074 -0.05624902  0.03626970       0.016
  -0.04871632  0.00000615  0.02721086       0.031
  -0.02436046 -0.01405930  0.03627381       0.031
  -0.00000461 -0.02812475  0.04533677       0.031
  -0.07307217  0.01407159  0.01814791       0.031
  -0.04872167  0.02813041  0.03627793       0.016
  -0.02436581  0.01406497  0.04534088       0.031
  -0.00000995 -0.00000048  0.05440383       0.016
 
 k-points in reciprocal lattice and weights: Autom                                   
   0.00000000  0.00000000  0.00000000       0.016
   0.25000000  0.00000000  0.00000000       0.031
   0.50000000  0.00000000  0.00000000       0.016
   0.00000000  0.25000000  0.00000000       0.031
   0.25000000  0.25000000  0.00000000       0.031
   0.50000000  0.25000000 -0.00000000       0.031
  -0.25000000  0.25000000 -0.00000000       0.031
   0.00000000  0.50000000  0.00000000       0.016
   0.25000000  0.50000000 -0.00000000       0.031
   0.50000000  0.50000000  0.00000000       0.016
   0.00000000  0.00000000  0.25000000       0.031
   0.25000000 -0.00000000  0.25000000       0.031
   0.50000000 -0.00000000  0.25000000       0.031
  -0.25000000  0.00000000  0.25000000       0.031
   0.00000000  0.25000000  0.25000000       0.031
   0.25000000  0.25000000  0.25000000       0.031
   0.50000000  0.25000000  0.25000000       0.031
  -0.25000000  0.25000000  0.25000000       0.031
   0.00000000  0.50000000  0.25000000       0.031
   0.25000000  0.50000000  0.25000000       0.031
   0.50000000  0.50000000  0.25000000       0.031
  -0.25000000  0.50000000  0.25000000       0.031
  -0.00000000 -0.25000000  0.25000000       0.031
   0.25000000 -0.25000000  0.25000000       0.031
   0.50000000 -0.25000000  0.25000000       0.031
  -0.25000000 -0.25000000  0.25000000       0.031
   0.00000000  0.00000000  0.50000000       0.016
   0.25000000 -0.00000000  0.50000000       0.031
   0.50000000 -0.00000000  0.50000000       0.016
   0.00000000  0.25000000  0.50000000       0.031
   0.25000000  0.25000000  0.50000000       0.031
   0.50000000  0.25000000  0.50000000       0.031
  -0.25000000  0.25000000  0.50000000       0.031
   0.00000000  0.50000000  0.50000000       0.016
   0.25000000  0.50000000  0.50000000       0.031
   0.50000000  0.50000000  0.50000000       0.016
 
 position of ions in fractional coordinates (direct lattice) 
   0.13834752  0.13936271  0.13984335
   0.39146324  0.38999630  0.39085144
   0.14028321  0.14032414  0.64092124
   0.39173469  0.39088444  0.89059988
   0.14005761  0.63914415  0.13990376
   0.38998511  0.89022976  0.39046082
   0.14027342  0.63856692  0.63942290
   0.39066873  0.89122478  0.89017412
   0.63968950  0.14081636  0.13851063
   0.89081879  0.39199278  0.39127564
   0.64044608  0.13979598  0.63895884
   0.89104424  0.39188824  0.88993991
   0.63987068  0.64050964  0.14005521
   0.88952244  0.89019616  0.39154151
   0.64095434  0.64008558  0.64144699
   0.89103108  0.89076076  0.89134632
   0.99959237  0.00150112  0.99675172
   0.99938324  0.00003493  0.49763958
   0.25168038  0.24891337  0.74959517
   0.99749990  0.49794372  0.00086033
   0.00052440  0.49715140  0.50088067
   0.49988249  0.99738472  0.00090131
   0.49954620  0.50003968  0.99785757
   0.75097315  0.74942469  0.24984287
   0.49985523  0.50129758  0.49655071
   0.74940214  0.75095878  0.74802348
   0.05623360  0.18120304  0.36059596
   0.36055215  0.05618073  0.18135900
   0.18067803  0.36043515  0.05635112
   0.43164615  0.30579781  0.11007695
   0.10933811  0.43208088  0.30572184
   0.30616879  0.11038237  0.43144631
   0.05540035  0.18155956  0.86034038
   0.35943918  0.05639020  0.68203455
   0.18159346  0.36067916  0.55556672
   0.43176800  0.30520898  0.61104129
   0.11066152  0.43074915  0.80539644
   0.30515946  0.11079423  0.93190663
   0.05604537  0.68076856  0.36081137
   0.36061507  0.55618152  0.18081868
   0.18040413  0.86090372  0.05629587
   0.43096027  0.80670950  0.10983535
   0.11018018  0.93120277  0.30647725
   0.30631393  0.60963452  0.43142758
   0.05642617  0.67983109  0.86072292
   0.36082901  0.55621291  0.68039936
   0.18050111  0.86073339  0.55625759
   0.43105925  0.80638098  0.60992686
   0.10974163  0.93076687  0.80662904
   0.30592914  0.60973059  0.93157562
   0.55668960  0.18089021  0.36049958
   0.86099568  0.05588109  0.18065345
   0.68094161  0.36072792  0.05606070
   0.93094987  0.30643726  0.10970186
   0.61015919  0.43137998  0.30635721
   0.80662739  0.10979363  0.43135599
   0.55625493  0.18016866  0.86082204
   0.86060460  0.05601788  0.68054061
   0.68056339  0.36084158  0.55626059
   0.93128773  0.30623948  0.60979445
   0.61008613  0.43101265  0.80636497
   0.80623116  0.10929440  0.93147945
   0.55554077  0.68183433  0.36007734
   0.86007458  0.55634829  0.18046819
   0.68107200  0.86046774  0.05575260
   0.93136114  0.80492582  0.11095065
   0.61067752  0.93165297  0.30547765
   0.80503784  0.61074302  0.43111591
   0.55556968  0.68082022  0.86090541
   0.86059508  0.55581627  0.68050717
   0.68097931  0.85972506  0.55655493
   0.93138973  0.80539064  0.61084254
   0.61024363  0.93134011  0.80571432
   0.80584636  0.61083297  0.93009391
   0.24862253  0.24992729  0.24762435
   0.24806756  0.74806531  0.24849505
   0.24752603  0.74745881  0.74934160
   0.74730972  0.24776208  0.24918815
   0.49682629  0.99767190  0.50015434
   0.74834988  0.24827406  0.74832874
 
 position of ions in cartesian coordinates  (Angst):
  -0.00719714  0.00166790  3.96141325
   0.00528275 -0.00700689 11.12195021
  -2.65094835 -1.53131347  8.74222801
  -2.64024632 -1.53128039 15.87366762
   0.00281676  3.05363605  8.71976589
   0.00079143  3.05885559 15.85006249
  -2.64179640  1.52126993 13.45487799
  -2.64236708  1.53408307 20.60637127
   2.65662036 -1.51841742  8.71936629
   2.64926922 -1.52307210 15.88287213
   0.00995080 -3.05799039 13.46421819
   0.00923629 -3.04996075 20.61445066
   2.65067084  1.53314618 13.47645513
   2.64225887  1.52780719 20.59967698
   0.00073843 -0.00666565 18.23901884
   0.00298662 -0.00240110 25.36059823
   0.01773077 -6.09682821 18.95390724
   2.66021842 -4.57822814 14.20333307
  -2.63594935 -1.54013253 11.86029704
   5.28274803 -0.00674970 14.19670191
  -2.64892294  1.50734929  9.47303414
   2.64678443  4.57009031 14.21394981
  -2.63674605 -1.52133965 18.94965061
   2.65820999  1.52381421 16.60538436
   0.02011891  0.01905467 14.20901742
   0.01122299  0.01392286 21.33087569
  -1.61147514 -0.16662680  5.67335892
   0.95022527 -1.31368149  5.67437977
   0.65991217  1.48004950  5.66839746
   1.70516072  0.21400979  8.04091465
  -1.03877434  1.37359051  8.03681705
  -0.66244341 -1.58089737  8.04498687
  -4.26283842 -1.69076209 10.40951299
  -1.70755254 -2.84070953 10.41531755
  -1.97938372 -0.04850347 10.41505944
  -0.94760503 -1.32256130 12.78873444
  -3.67834335 -0.16725378 12.77675462
  -3.31853145 -3.10634580 12.78678653
  -1.61234253  2.88935118 10.41312189
   0.95469270  1.74650324 10.41348620
   0.66002662  4.54264181 10.41334761
   1.70408016  3.28114275 12.78439218
  -1.03704310  4.42205199 12.78726942
  -0.66030484  1.47286045 12.78271877
  -4.25816074  1.35307630 15.15010417
  -1.69025475  0.21767783 15.15493839
  -1.98755930  3.01177426 15.15539085
  -0.94418308  1.74890434 17.52618471
  -3.68847447  2.89061596 17.52351509
  -3.31143000 -0.05547422 17.52448585
   1.04109435 -1.69859158 10.41787473
   3.60595525 -2.84366376 10.41312370
   3.31249129 -0.04702847 10.41499235
   4.35310257 -1.30775326 12.78088807
   1.61185304 -0.16410321 12.78805666
   1.99010711 -3.11457644 12.78696712
  -1.61122108 -3.23230902 15.15306609
   0.95617861 -4.37093194 15.15274251
   0.66112633 -1.57543427 15.15748042
   1.70609986 -2.83992564 17.52619793
  -1.03687835 -1.69579680 17.52705431
  -0.66095005 -4.64644266 17.52274470
   1.03851738  1.37070809 15.15555369
   3.60332870  0.22129705 15.15068685
   3.31608563  3.01064307 15.15446601
   4.34993601  1.73664187 17.52592476
   1.62053140  2.89739185 17.53084848
   1.98422981 -0.04445414 17.52224258
  -1.61402020 -0.16776344 19.89716443
   0.95757694 -1.31331458 19.89404987
   0.66304067  1.47428249 19.89725375
   1.70235907  0.21008259 22.27268258
  -1.03132447  1.36643465 22.26911081
  -0.65437448 -1.57289580 22.26417451
   0.00658972  0.01109605  7.07910522
   0.00030445  3.05745813 11.80806171
  -2.65535291  1.52316785 16.54830239
   2.64098779 -1.53187064 11.80501314
  -0.01375636  3.05383175 18.92369299
   0.00275096 -3.05893622 16.55468929
 


--------------------------------------------------------------------------------------------------------


 k-point  1 :   0.0000 0.0000 0.0000  plane waves:   21655
 k-point  2 :   0.2500 0.0000 0.0000  plane waves:   21660
 k-point  3 :   0.5000 0.0000 0.0000  plane waves:   21674
 k-point  4 :   0.0000 0.2500 0.0000  plane waves:   21661
 k-point  5 :   0.2500 0.2500 0.0000  plane waves:   21659
 k-point  6 :   0.5000 0.2500-0.0000  plane waves:   21679
 k-point  7 :  -0.2500 0.2500-0.0000  plane waves:   21696
 k-point  8 :   0.0000 0.5000 0.0000  plane waves:   21676
 k-point  9 :   0.2500 0.5000-0.0000  plane waves:   21680
 k-point 10 :   0.5000 0.5000 0.0000  plane waves:   21712
 k-point 11 :   0.0000 0.0000 0.2500  plane waves:   21665
 k-point 12 :   0.2500-0.0000 0.2500  plane waves:   21658
 k-point 13 :   0.5000-0.0000 0.2500  plane waves:   21679
 k-point 14 :  -0.2500 0.0000 0.2500  plane waves:   21693
 k-point 15 :   0.0000 0.2500 0.2500  plane waves:   21653
 k-point 16 :   0.2500 0.2500 0.2500  plane waves:   21711
 k-point 17 :   0.5000 0.2500 0.2500  plane waves:   21676
 k-point 18 :  -0.2500 0.2500 0.2500  plane waves:   21700
 k-point 19 :   0.0000 0.5000 0.2500  plane waves:   21679
 k-point 20 :   0.2500 0.5000 0.2500  plane waves:   21672
 k-point 21 :   0.5000 0.5000 0.2500  plane waves:   21711
 k-point 22 :  -0.2500 0.5000 0.2500  plane waves:   21702
 k-point 23 :  -0.0000-0.2500 0.2500  plane waves:   21692
 k-point 24 :   0.2500-0.2500 0.2500  plane waves:   21702
 k-point 25 :   0.5000-0.2500 0.2500  plane waves:   21700
 k-point 26 :  -0.2500-0.2500 0.2500  plane waves:   21696
 k-point 27 :   0.0000 0.0000 0.5000  plane waves:   21676
 k-point 28 :   0.2500-0.0000 0.5000  plane waves:   21678
 k-point 29 :   0.5000-0.0000 0.5000  plane waves:   21718
 k-point 30 :   0.0000 0.2500 0.5000  plane waves:   21680
 k-point 31 :   0.2500 0.2500 0.5000  plane waves:   21671
 k-point 32 :   0.5000 0.2500 0.5000  plane waves:   21706
 k-point 33 :  -0.2500 0.2500 0.5000  plane waves:   21697
 k-point 34 :   0.0000 0.5000 0.5000  plane waves:   21718
 k-point 35 :   0.2500 0.5000 0.5000  plane waves:   21707
 k-point 36 :   0.5000 0.5000 0.5000  plane waves:   21706

 maximum and minimum number of plane-waves per node :     21718    21653

 maximum number of plane-waves:     21718
 maximum index in each direction: 
   IXMAX=   20   IYMAX=   20   IZMAX=   20
   IXMIN=  -20   IYMIN=  -20   IZMIN=  -20


 serial   3D FFT for wavefunctions
 parallel 3D FFT for charge:
    minimum data exchange during FFTs selected (reduces bandwidth)


 total amount of memory used by VASP MPI-rank0   176180. kBytes
=======================================================================

   base      :      30000. kBytes
   nonlr-proj:      62274. kBytes
   fftplans  :       4575. kBytes
   grid      :      26165. kBytes
   one-center:       1244. kBytes
   wavefun   :      51922. kBytes
 
     INWAV:  cpu time    0.0000: real time    0.0000
 Broyden mixing: mesh for mixing (old mesh)
   NGX = 41   NGY = 41   NGZ = 41
  (NGX  =160   NGY  =160   NGZ  =160)
  gives a total of  68921 points

 initial charge density was supplied:
 charge density of overlapping atoms calculated
 number of electron     464.0000000 magnetization 
 keeping initial charge density in first step


--------------------------------------------------------------------------------------------------------


 Maximum index for non-local projection operator        12153
 Maximum index for augmentation-charges         1194 (set IRDMAX)


--------------------------------------------------------------------------------------------------------


 First call to EWALD:  gamma=   0.182
 Maximum number of real-space cells 3x 3x 3
 Maximum number of reciprocal cells 3x 3x 3

    FEWALD:  cpu time    0.0029: real time    0.0029


--------------------------------------- Iteration      1(   1)  ---------------------------------------


    POTLOK:  cpu time    0.0683: real time    0.0981
    SETDIJ:  cpu time    0.0109: real time    0.0109
     EDDAV:  cpu time   26.0745: real time   26.0715
 BZINTS: Fermi energy: 17.921583;464.000000 electrons
         Band energy:-116.849160;  BLOECHL correction: -0.023976
       DOS:  cpu time    0.0544: real time    0.0544
    --------------------------------------------
      LOOP:  cpu time   26.2081: real time   26.2350

 eigenvalue-minimisations  : 20736
 total energy-change (2. order) : 0.3554989E+04  (-0.2422186E+05)
 number of electron     464.0000000 magnetization 
 augmentation part      464.0000000 magnetization 

 Free energy of the ion-electron system (eV)
  ---------------------------------------------------
  alpha Z        PSCENC =      1491.76369361
  Ewald energy   TEWEN  =    -25961.08410305
  -Hartree energ DENC   =    -11048.41743192
  -exchange      EXHF   =         0.00000000
  -V(xc)+E(xc)   XCENC  =      1453.20501200
  PAW double counting   =     30201.20122080   -29545.67637776
  entropy T*S    EENTRO =         0.00000000
  eigenvalues    EBANDS =      -116.84915993
  atomic energy  EATOM  =     37080.84622879
  Solvation  Ediel_sol  =         0.00000000
  ---------------------------------------------------
  free energy    TOTEN  =      3554.98908253 eV

  energy without entropy =     3554.98908253  energy(sigma->0) =     3554.98908253


--------------------------------------------------------------------------------------------------------




--------------------------------------- Iteration      1(   2)  ---------------------------------------


     EDDAV:  cpu time   38.8385: real time   38.8474
 BZINTS: Fermi energy:  0.710239;464.000000 electrons
         Band energy:***********;  BLOECHL correction:  0.000000
       DOS:  cpu time    0.0100: real time    0.0101
    --------------------------------------------
      LOOP:  cpu time   38.8486: real time   38.8575

 eigenvalue-minimisations  : 31104
 total energy-change (2. order) :-0.4107751E+04  (-0.4048345E+04)
 number of electron     464.0000000 magnetization 
 augmentation part      464.0000000 magnetization 

 Free energy of the ion-electron system (eV)
  ---------------------------------------------------
  alpha Z        PSCENC =      1491.76369361
  Ewald energy   TEWEN  =    -25961.08410305
  -Hartree energ DENC   =    -11048.41743192
  -exchange      EXHF   =         0.00000000
  -V(xc)+E(xc)   XCENC  =      1453.20501200
  PAW double counting   =     30201.20122080   -29545.67637776
  entropy T*S    EENTRO =         0.00000000
  eigenvalues    EBANDS =     -4224.60015157
  atomic energy  EATOM  =     37080.84622879
  Solvation  Ediel_sol  =         0.00000000
  ---------------------------------------------------
  free energy    TOTEN  =      -552.76190911 eV

  energy without entropy =     -552.76190911  energy(sigma->0) =     -552.76190911


--------------------------------------------------------------------------------------------------------




--------------------------------------- Iteration      1(   3)  ---------------------------------------


     EDDAV:  cpu time   38.5964: real time   38.6019
 BZINTS: Fermi energy: -0.392387;464.000000 electrons
         Band energy:***********;  BLOECHL correction:  0.000000
       DOS:  cpu time    0.0100: real time    0.0100
    --------------------------------------------
      LOOP:  cpu time   38.6065: real time   38.6120

 eigenvalue-minimisations  : 31104
 total energy-change (2. order) :-0.2495056E+03  (-0.2485544E+03)
 number of electron     464.0000000 magnetization 
 augmentation part      464.0000000 magnetization 

 Free energy of the ion-electron system (eV)
  ---------------------------------------------------
  alpha Z        PSCENC =      1491.76369361
  Ewald energy   TEWEN  =    -25961.08410305
  -Hartree energ DENC   =    -11048.41743192
  -exchange      EXHF   =         0.00000000
  -V(xc)+E(xc)   XCENC  =      1453.20501200
  PAW double counting   =     30201.20122080   -29545.67637776
  entropy T*S    EENTRO =         0.00000000
  eigenvalues    EBANDS =     -4474.10576447
  atomic energy  EATOM  =     37080.84622879
  Solvation  Ediel_sol  =         0.00000000
  ---------------------------------------------------
  free energy    TOTEN  =      -802.26752200 eV

  energy without entropy =     -802.26752200  energy(sigma->0) =     -802.26752200


--------------------------------------------------------------------------------------------------------




--------------------------------------- Iteration      1(   4)  ---------------------------------------


     EDDAV:  cpu time   44.9711: real time   44.9846
 BZINTS: Fermi energy: -0.425294;464.000000 electrons
         Band energy:***********;  BLOECHL correction:  0.000000
       DOS:  cpu time    0.0085: real time    0.0085
    --------------------------------------------
      LOOP:  cpu time   44.9796: real time   44.9931

 eigenvalue-minimisations  : 36288
 total energy-change (2. order) :-0.1104054E+02  (-0.1103052E+02)
 number of electron     464.0000000 magnetization 
 augmentation part      464.0000000 magnetization 

 Free energy of the ion-electron system (eV)
  ---------------------------------------------------
  alpha Z        PSCENC =      1491.76369361
  Ewald energy   TEWEN  =    -25961.08410305
  -Hartree energ DENC   =    -11048.41743192
  -exchange      EXHF   =         0.00000000
  -V(xc)+E(xc)   XCENC  =      1453.20501200
  PAW double counting   =     30201.20122080   -29545.67637776
  entropy T*S    EENTRO =         0.00000000
  eigenvalues    EBANDS =     -4485.14629968
  atomic energy  EATOM  =     37080.84622879
  Solvation  Ediel_sol  =         0.00000000
  ---------------------------------------------------
  free energy    TOTEN  =      -813.30805722 eV

  energy without entropy =     -813.30805722  energy(sigma->0) =     -813.30805722


--------------------------------------------------------------------------------------------------------




--------------------------------------- Iteration      1(   5)  ---------------------------------------


     EDDAV:  cpu time   38.8495: real time   38.8630
 BZINTS: Fermi energy: -0.468918;464.000000 electrons
         Band energy:***********;  BLOECHL correction:  0.000000
       DOS:  cpu time    0.0084: real time    0.0084
    CHARGE:  cpu time    0.9917: real time    0.9915
    MIXING:  cpu time    0.0013: real time    0.0013
    --------------------------------------------
      LOOP:  cpu time   39.8509: real time   39.8642

 eigenvalue-minimisations  : 31752
 total energy-change (2. order) :-0.2498139E+00  (-0.2498056E+00)
 number of electron     464.0000023 magnetization 
 augmentation part       51.5889707 magnetization 

 Broyden mixing:
  rms(total) = 0.91952E+01    rms(broyden)= 0.91945E+01
  rms(prec ) = 0.11366E+02
  weight for this iteration     100.00

 Free energy of the ion-electron system (eV)
  ---------------------------------------------------
  alpha Z        PSCENC =      1491.76369361
  Ewald energy   TEWEN  =    -25961.08410305
  -Hartree energ DENC   =    -11048.41743192
  -exchange      EXHF   =         0.00000000
  -V(xc)+E(xc)   XCENC  =      1453.20501200
  PAW double counting   =     30201.20122080   -29545.67637776
  entropy T*S    EENTRO =         0.00000000
  eigenvalues    EBANDS =     -4485.39611358
  atomic energy  EATOM  =     37080.84622879
  Solvation  Ediel_sol  =         0.00000000
  ---------------------------------------------------
  free energy    TOTEN  =      -813.55787112 eV

  energy without entropy =     -813.55787112  energy(sigma->0) =     -813.55787112


--------------------------------------------------------------------------------------------------------




--------------------------------------- Iteration      1(   6)  ---------------------------------------


    POTLOK:  cpu time    0.0490: real time    0.0655
    SETDIJ:  cpu time    0.0100: real time    0.0100
    EDDIAG:  cpu time    4.0043: real time    4.0040
  RMM-DIIS:  cpu time   13.8412: real time   13.8398
    ORTHCH:  cpu time    0.5814: real time    0.5814
 BZINTS: Fermi energy:  2.905555;464.000000 electrons
         Band energy:***********;  BLOECHL correction:  0.000000
       DOS:  cpu time    0.0102: real time    0.0102
    CHARGE:  cpu time    0.9995: real time    0.9994
    MIXING:  cpu time    0.0013: real time    0.0013
    --------------------------------------------
      LOOP:  cpu time   19.4970: real time   19.5117

 eigenvalue-minimisations  : 24207
 total energy-change (2. order) : 0.1270314E+03  (-0.7334434E+02)
 number of electron     464.0000020 magnetization 
 augmentation part       44.4667397 magnetization 

 Broyden mixing:
  rms(total) = 0.41410E+01    rms(broyden)= 0.41396E+01
  rms(prec ) = 0.43852E+01
  weight for this iteration     100.00

 eigenvalues of (default mixing * dielectric matrix)
  average eigenvalue GAMMA=   0.9750
  0.9750

 Free energy of the ion-electron system (eV)
  ---------------------------------------------------
  alpha Z        PSCENC =      1491.76369361
  Ewald energy   TEWEN  =    -25961.08410305
  -Hartree energ DENC   =    -11533.55748453
  -exchange      EXHF   =         0.00000000
  -V(xc)+E(xc)   XCENC  =      1506.97208991
  PAW double counting   =     34996.55762556   -34376.67258991
  entropy T*S    EENTRO =         0.00000000
  eigenvalues    EBANDS =     -3891.35198138
  atomic energy  EATOM  =     37080.84622879
  Solvation  Ediel_sol  =         0.00000000
  ---------------------------------------------------
  free energy    TOTEN  =      -686.52652100 eV

  energy without entropy =     -686.52652100  energy(sigma->0) =     -686.52652100


--------------------------------------------------------------------------------------------------------




--------------------------------------- Iteration      1(   7)  ---------------------------------------


    POTLOK:  cpu time    0.0490: real time    0.0596
    SETDIJ:  cpu time    0.0093: real time    0.0093
    EDDIAG:  cpu time    4.0144: real time    4.0139
  RMM-DIIS:  cpu time   15.6845: real time   15.6825
    ORTHCH:  cpu time    0.5820: real time    0.5820
 BZINTS: Fermi energy:  2.305734;464.000000 electrons
         Band energy:***********;  BLOECHL correction:  0.000000
       DOS:  cpu time    0.0084: real time    0.0084
    CHARGE:  cpu time    0.9991: real time    0.9990
    MIXING:  cpu time    0.0012: real time    0.0012
    --------------------------------------------
      LOOP:  cpu time   21.3479: real time   21.3558

 eigenvalue-minimisations  : 25249
 total energy-change (2. order) : 0.1057143E+02  (-0.3755474E+01)
 number of electron     464.0000020 magnetization 
 augmentation part       44.7892855 magnetization 

 Broyden mixing:
  rms(total) = 0.19459E+01    rms(broyden)= 0.19458E+01
  rms(prec ) = 0.20721E+01
  weight for this iteration     100.00

 eigenvalues of (default mixing * dielectric matrix)
  average eigenvalue GAMMA=   1.1512
  0.9553  1.3471

 Free energy of the ion-electron system (eV)
  ---------------------------------------------------
  alpha Z        PSCENC =      1491.76369361
  Ewald energy   TEWEN  =    -25961.08410305
  -Hartree energ DENC   =    -11363.05571238
  -exchange      EXHF   =         0.00000000
  -V(xc)+E(xc)   XCENC  =      1495.29650434
  PAW double counting   =     38347.33512641   -37718.58922790
  entropy T*S    EENTRO =         0.00000000
  eigenvalues    EBANDS =     -4048.46760336
  atomic energy  EATOM  =     37080.84622879
  Solvation  Ediel_sol  =         0.00000000
  ---------------------------------------------------
  free energy    TOTEN  =      -675.95509354 eV

  energy without entropy =     -675.95509354  energy(sigma->0) =     -675.95509354


--------------------------------------------------------------------------------------------------------




--------------------------------------- Iteration      1(   8)  ---------------------------------------


    POTLOK:  cpu time    0.0488: real time    0.0638
    SETDIJ:  cpu time    0.0097: real time    0.0098
    EDDIAG:  cpu time    4.0582: real time    4.0577
  RMM-DIIS:  cpu time   15.4812: real time   15.4798
    ORTHCH:  cpu time    0.5844: real time    0.5844
 BZINTS: Fermi energy:  2.132588;464.000000 electrons
         Band energy:***********;  BLOECHL correction:  0.000000
       DOS:  cpu time    0.0098: real time    0.0098
    CHARGE:  cpu time    0.9883: real time    0.9882
    MIXING:  cpu time    0.0013: real time    0.0013
    --------------------------------------------
      LOOP:  cpu time   21.1817: real time   21.1947

 eigenvalue-minimisations  : 25116
 total energy-change (2. order) : 0.2139736E+00  (-0.1608441E+01)
 number of electron     464.0000020 magnetization 
 augmentation part       45.2204620 magnetization 

 Broyden mixing:
  rms(total) = 0.66917E+00    rms(broyden)= 0.66901E+00
  rms(prec ) = 0.73725E+00
  weight for this iteration     100.00

 eigenvalues of (default mixing * dielectric matrix)
  average eigenvalue GAMMA=   1.3110
  2.0485  0.9423  0.9423

 Free energy of the ion-electron system (eV)
  ---------------------------------------------------
  alpha Z        PSCENC =      1491.76369361
  Ewald energy   TEWEN  =    -25961.08410305
  -Hartree energ DENC   =    -11291.29084380
  -exchange      EXHF   =         0.00000000
  -V(xc)+E(xc)   XCENC  =      1490.98666426
  PAW double counting   =     40152.70316403   -39511.63002210
  entropy T*S    EENTRO =         0.00000000
  eigenvalues    EBANDS =     -4128.03590171
  atomic energy  EATOM  =     37080.84622879
  Solvation  Ediel_sol  =         0.00000000
  ---------------------------------------------------
  free energy    TOTEN  =      -675.74111998 eV

  energy without entropy =     -675.74111998  energy(sigma->0) =     -675.74111998


--------------------------------------------------------------------------------------------------------




--------------------------------------- Iteration      1(   9)  ---------------------------------------


    POTLOK:  cpu time    0.0498: real time    0.0603
    SETDIJ:  cpu time    0.0092: real time    0.0092
    EDDIAG:  cpu time    4.0304: real time    4.0301
  RMM-DIIS:  cpu time   17.7810: real time   17.7792
    ORTHCH:  cpu time    0.5857: real time    0.5856
 BZINTS: Fermi energy:  2.114337;464.000000 electrons
         Band energy:***********;  BLOECHL correction:  0.000000
       DOS:  cpu time    0.0098: real time    0.0098
    CHARGE:  cpu time    0.9892: real time    0.9891
    MIXING:  cpu time    0.0013: real time    0.0013
    --------------------------------------------
      LOOP:  cpu time   23.4564: real time   23.4648

 eigenvalue-minimisations  : 32079
 total energy-change (2. order) : 0.7904785E-01  (-0.2602929E+00)
 number of electron     464.0000020 magnetization 
 augmentation part       44.8831131 magnetization 

 Broyden mixing:
  rms(total) = 0.26273E+00    rms(broyden)= 0.26272E+00
  rms(prec ) = 0.30869E+00
  weight for this iteration     100.00

 eigenvalues of (default mixing * dielectric matrix)
  average eigenvalue GAMMA=   1.4862
  2.0915  2.0915  0.8809  0.8809

 Free energy of the ion-electron system (eV)
  ---------------------------------------------------
  alpha Z        PSCENC =      1491.76369361
  Ewald energy   TEWEN  =    -25961.08410305
  -Hartree energ DENC   =    -11325.37156788
  -exchange      EXHF   =         0.00000000
  -V(xc)+E(xc)   XCENC  =      1493.90896984
  PAW double counting   =     41396.51167449   -40747.25541165
  entropy T*S    EENTRO =         0.00000000
  eigenvalues    EBANDS =     -4104.98155627
  atomic energy  EATOM  =     37080.84622879
  Solvation  Ediel_sol  =         0.00000000
  ---------------------------------------------------
  free energy    TOTEN  =      -675.66207213 eV

  energy without entropy =     -675.66207213  energy(sigma->0) =     -675.66207213


--------------------------------------------------------------------------------------------------------




--------------------------------------- Iteration      1(  10)  ---------------------------------------


    POTLOK:  cpu time    0.0487: real time    0.0586
    SETDIJ:  cpu time    0.0098: real time    0.0098
    EDDIAG:  cpu time    4.0301: real time    4.0299
  RMM-DIIS:  cpu time   17.6379: real time   17.6357
    ORTHCH:  cpu time    0.5844: real time    0.5843
 BZINTS: Fermi energy:  2.163863;464.000000 electrons
         Band energy:***********;  BLOECHL correction:  0.000000
       DOS:  cpu time    0.0099: real time    0.0099
    CHARGE:  cpu time    0.9913: real time    0.9912
    MIXING:  cpu time    0.0013: real time    0.0013
    --------------------------------------------
      LOOP:  cpu time   23.3133: real time   23.3207

 eigenvalue-minimisations  : 31469
 total energy-change (2. order) : 0.7257850E-02  (-0.6111287E-01)
 number of electron     464.0000019 magnetization 
 augmentation part       44.7018554 magnetization 

 Broyden mixing:
  rms(total) = 0.89241E-01    rms(broyden)= 0.89225E-01
  rms(prec ) = 0.10444E+00
  weight for this iteration     100.00

 eigenvalues of (default mixing * dielectric matrix)
  average eigenvalue GAMMA=   1.3855
  2.5870  1.8806  0.8991  0.8991  0.6621

 Free energy of the ion-electron system (eV)
  ---------------------------------------------------
  alpha Z        PSCENC =      1491.76369361
  Ewald energy   TEWEN  =    -25961.08410305
  -Hartree energ DENC   =    -11370.68047558
  -exchange      EXHF   =         0.00000000
  -V(xc)+E(xc)   XCENC  =      1495.86074362
  PAW double counting   =     41454.88895159   -40797.48627654
  entropy T*S    EENTRO =         0.00000000
  eigenvalues    EBANDS =     -4069.76357672
  atomic energy  EATOM  =     37080.84622879
  Solvation  Ediel_sol  =         0.00000000
  ---------------------------------------------------
  free energy    TOTEN  =      -675.65481428 eV

  energy without entropy =     -675.65481428  energy(sigma->0) =     -675.65481428


--------------------------------------------------------------------------------------------------------




--------------------------------------- Iteration      1(  11)  ---------------------------------------


    POTLOK:  cpu time    0.0483: real time    0.0620
    SETDIJ:  cpu time    0.0098: real time    0.0099
    EDDIAG:  cpu time    4.0214: real time    4.0211
  RMM-DIIS:  cpu time   18.1560: real time   18.1533
    ORTHCH:  cpu time    0.5828: real time    0.5828
 BZINTS: Fermi energy:  2.160156;464.000000 electrons
         Band energy:***********;  BLOECHL correction:  0.000000
       DOS:  cpu time    0.0099: real time    0.0099
    CHARGE:  cpu time    0.9881: real time    0.9880
    MIXING:  cpu time    0.0014: real time    0.0014
    --------------------------------------------
      LOOP:  cpu time   23.8178: real time   23.8284

 eigenvalue-minimisations  : 34482
 total energy-change (2. order) :-0.9377827E-02  (-0.1635488E-01)
 number of electron     464.0000019 magnetization 
 augmentation part       44.6241081 magnetization 

 Broyden mixing:
  rms(total) = 0.45814E-01    rms(broyden)= 0.45809E-01
  rms(prec ) = 0.52703E-01
  weight for this iteration     100.00

 eigenvalues of (default mixing * dielectric matrix)
  average eigenvalue GAMMA=   1.3059
  2.7273  1.8652  0.9042  0.9042  0.7173  0.7173

 Free energy of the ion-electron system (eV)
  ---------------------------------------------------
  alpha Z        PSCENC =      1491.76369361
  Ewald energy   TEWEN  =    -25961.08410305
  -Hartree energ DENC   =    -11370.77308160
  -exchange      EXHF   =         0.00000000
  -V(xc)+E(xc)   XCENC  =      1495.94007011
  PAW double counting   =     41560.36196497   -40901.37143551
  entropy T*S    EENTRO =         0.00000000
  eigenvalues    EBANDS =     -4071.34752943
  atomic energy  EATOM  =     37080.84622879
  Solvation  Ediel_sol  =         0.00000000
  ---------------------------------------------------
  free energy    TOTEN  =      -675.66419211 eV

  energy without entropy =     -675.66419211  energy(sigma->0) =     -675.66419211


--------------------------------------------------------------------------------------------------------




--------------------------------------- Iteration      1(  12)  ---------------------------------------


    POTLOK:  cpu time    0.0511: real time    0.0671
    SETDIJ:  cpu time    0.0095: real time    0.0097
    EDDIAG:  cpu time    4.0148: real time    4.0144
  RMM-DIIS:  cpu time   17.9837: real time   17.9809
    ORTHCH:  cpu time    0.5857: real time    0.5856
 BZINTS: Fermi energy:  2.153591;464.000000 electrons
         Band energy:***********;  BLOECHL correction:  0.000000
       DOS:  cpu time    0.0099: real time    0.0099
    CHARGE:  cpu time    0.9871: real time    0.9869
    MIXING:  cpu time    0.0014: real time    0.0014
    --------------------------------------------
      LOOP:  cpu time   23.6433: real time   23.6560

 eigenvalue-minimisations  : 34412
 total energy-change (2. order) :-0.3497292E-02  (-0.5512494E-02)
 number of electron     464.0000019 magnetization 
 augmentation part       44.5819204 magnetization 

 Broyden mixing:
  rms(total) = 0.41650E-01    rms(broyden)= 0.41648E-01
  rms(prec ) = 0.45534E-01
  weight for this iteration     100.00

 eigenvalues of (default mixing * dielectric matrix)
  average eigenvalue GAMMA=   1.3566
  2.8634  1.9714  1.0748  1.0748  0.9047  0.9047  0.7023

 Free energy of the ion-electron system (eV)
  ---------------------------------------------------
  alpha Z        PSCENC =      1491.76369361
  Ewald energy   TEWEN  =    -25961.08410305
  -Hartree energ DENC   =    -11370.04090640
  -exchange      EXHF   =         0.00000000
  -V(xc)+E(xc)   XCENC  =      1495.90476211
  PAW double counting   =     41581.40651662   -40921.46220889
  entropy T*S    EENTRO =         0.00000000
  eigenvalues    EBANDS =     -4073.00167219
  atomic energy  EATOM  =     37080.84622879
  Solvation  Ediel_sol  =         0.00000000
  ---------------------------------------------------
  free energy    TOTEN  =      -675.66768940 eV

  energy without entropy =     -675.66768940  energy(sigma->0) =     -675.66768940


--------------------------------------------------------------------------------------------------------




--------------------------------------- Iteration      1(  13)  ---------------------------------------


    POTLOK:  cpu time    0.0485: real time    0.0596
    SETDIJ:  cpu time    0.0097: real time    0.0098
    EDDIAG:  cpu time    4.0159: real time    4.0154
  RMM-DIIS:  cpu time   18.3265: real time   18.3241
    ORTHCH:  cpu time    0.5817: real time    0.5817
 BZINTS: Fermi energy:  2.149836;464.000000 electrons
         Band energy:***********;  BLOECHL correction:  0.000000
       DOS:  cpu time    0.0098: real time    0.0098
    CHARGE:  cpu time    0.9875: real time    0.9874
    MIXING:  cpu time    0.0015: real time    0.0015
    --------------------------------------------
      LOOP:  cpu time   23.9811: real time   23.9893

 eigenvalue-minimisations  : 34501
 total energy-change (2. order) :-0.2181133E-02  (-0.1882129E-02)
 number of electron     464.0000019 magnetization 
 augmentation part       44.5684248 magnetization 

 Broyden mixing:
  rms(total) = 0.30813E-01    rms(broyden)= 0.30811E-01
  rms(prec ) = 0.37701E-01
  weight for this iteration     100.00

 eigenvalues of (default mixing * dielectric matrix)
  average eigenvalue GAMMA=   1.4730
  2.8614  2.2317  1.5936  1.5936  1.0398  0.8518  0.8518  0.7601

 Free energy of the ion-electron system (eV)
  ---------------------------------------------------
  alpha Z        PSCENC =      1491.76369361
  Ewald energy   TEWEN  =    -25961.08410305
  -Hartree energ DENC   =    -11372.08838470
  -exchange      EXHF   =         0.00000000
  -V(xc)+E(xc)   XCENC  =      1495.94705292
  PAW double counting   =     41602.67039291   -40940.81583136
  entropy T*S    EENTRO =         0.00000000
  eigenvalues    EBANDS =     -4072.90891964
  atomic energy  EATOM  =     37080.84622879
  Solvation  Ediel_sol  =         0.00000000
  ---------------------------------------------------
  free energy    TOTEN  =      -675.66987053 eV

  energy without entropy =     -675.66987053  energy(sigma->0) =     -675.66987053


--------------------------------------------------------------------------------------------------------




--------------------------------------- Iteration      1(  14)  ---------------------------------------


    POTLOK:  cpu time    0.0521: real time    0.0635
    SETDIJ:  cpu time    0.0095: real time    0.0095
    EDDIAG:  cpu time    4.0113: real time    4.0111
  RMM-DIIS:  cpu time   17.7569: real time   17.7550
    ORTHCH:  cpu time    0.5813: real time    0.5812
 BZINTS: Fermi energy:  2.140453;464.000000 electrons
         Band energy:***********;  BLOECHL correction:  0.000000
       DOS:  cpu time    0.0098: real time    0.0098
    CHARGE:  cpu time    0.9844: real time    0.9843
    MIXING:  cpu time    0.0014: real time    0.0015
    --------------------------------------------
      LOOP:  cpu time   23.4067: real time   23.4158

 eigenvalue-minimisations  : 32795
 total energy-change (2. order) : 0.1429955E-02  (-0.1311362E-02)
 number of electron     464.0000019 magnetization 
 augmentation part       44.5589164 magnetization 

 Broyden mixing:
  rms(total) = 0.11084E-01    rms(broyden)= 0.11082E-01
  rms(prec ) = 0.11992E-01
  weight for this iteration     100.00

 eigenvalues of (default mixing * dielectric matrix)
  average eigenvalue GAMMA=   1.4171
  2.9697  2.4028  1.4310  1.2002  1.2002  0.9674  0.9225  0.8302  0.8302

 Free energy of the ion-electron system (eV)
  ---------------------------------------------------
  alpha Z        PSCENC =      1491.76369361
  Ewald energy   TEWEN  =    -25961.08410305
  -Hartree energ DENC   =    -11370.50669185
  -exchange      EXHF   =         0.00000000
  -V(xc)+E(xc)   XCENC  =      1495.90078061
  PAW double counting   =     41635.22105790   -40971.66845326
  entropy T*S    EENTRO =         0.00000000
  eigenvalues    EBANDS =     -4076.14095333
  atomic energy  EATOM  =     37080.84622879
  Solvation  Ediel_sol  =         0.00000000
  ---------------------------------------------------
  free energy    TOTEN  =      -675.66844058 eV

  energy without entropy =     -675.66844058  energy(sigma->0) =     -675.66844058


--------------------------------------------------------------------------------------------------------




--------------------------------------- Iteration      1(  15)  ---------------------------------------


    POTLOK:  cpu time    0.0495: real time    0.0676
    SETDIJ:  cpu time    0.0093: real time    0.0093
    EDDIAG:  cpu time    4.0155: real time    4.0151
  RMM-DIIS:  cpu time   18.6947: real time   18.6927
    ORTHCH:  cpu time    0.5827: real time    0.5827
 BZINTS: Fermi energy:  2.133053;464.000000 electrons
         Band energy:***********;  BLOECHL correction:  0.000000
       DOS:  cpu time    0.0098: real time    0.0098
    CHARGE:  cpu time    0.9830: real time    0.9828
    MIXING:  cpu time    0.0015: real time    0.0015
    --------------------------------------------
      LOOP:  cpu time   24.3460: real time   24.3615

 eigenvalue-minimisations  : 34854
 total energy-change (2. order) :-0.3041311E-03  (-0.4044609E-03)
 number of electron     464.0000019 magnetization 
 augmentation part       44.5493195 magnetization 

 Broyden mixing:
  rms(total) = 0.43444E-02    rms(broyden)= 0.43430E-02
  rms(prec ) = 0.49424E-02
  weight for this iteration     100.00

 eigenvalues of (default mixing * dielectric matrix)
  average eigenvalue GAMMA=   1.3623
  3.1381  2.3976  1.3925  1.3925  1.0831  1.0831  0.8503  0.8503  0.8634  0.5722

 Free energy of the ion-electron system (eV)
  ---------------------------------------------------
  alpha Z        PSCENC =      1491.76369361
  Ewald energy   TEWEN  =    -25961.08410305
  -Hartree energ DENC   =    -11369.92673224
  -exchange      EXHF   =         0.00000000
  -V(xc)+E(xc)   XCENC  =      1495.85706902
  PAW double counting   =     41622.95455159   -40959.48886429
  entropy T*S    EENTRO =         0.00000000
  eigenvalues    EBANDS =     -4076.59058815
  atomic energy  EATOM  =     37080.84622879
  Solvation  Ediel_sol  =         0.00000000
  ---------------------------------------------------
  free energy    TOTEN  =      -675.66874471 eV

  energy without entropy =     -675.66874471  energy(sigma->0) =     -675.66874471


--------------------------------------------------------------------------------------------------------




--------------------------------------- Iteration      1(  16)  ---------------------------------------


    POTLOK:  cpu time    0.0483: real time    0.0577
    SETDIJ:  cpu time    0.0097: real time    0.0098
    EDDIAG:  cpu time    4.0140: real time    4.0137
  RMM-DIIS:  cpu time   18.8454: real time   18.8431
    ORTHCH:  cpu time    0.5818: real time    0.5818
 BZINTS: Fermi energy:  2.126115;464.000000 electrons
         Band energy:***********;  BLOECHL correction:  0.000000
       DOS:  cpu time    0.0098: real time    0.0098
    CHARGE:  cpu time    0.9923: real time    0.9922
    MIXING:  cpu time    0.0017: real time    0.0017
    --------------------------------------------
      LOOP:  cpu time   24.5029: real time   24.5097

 eigenvalue-minimisations  : 34584
 total energy-change (2. order) :-0.1050782E-03  (-0.1237126E-03)
 number of electron     464.0000019 magnetization 
 augmentation part       44.5433306 magnetization 

 Broyden mixing:
  rms(total) = 0.41204E-02    rms(broyden)= 0.41200E-02
  rms(prec ) = 0.43321E-02
  weight for this iteration     100.00

 eigenvalues of (default mixing * dielectric matrix)
  average eigenvalue GAMMA=   1.4420
  3.5232  2.4111  1.6932  1.6932  1.0758  1.0758  1.0498  0.8903  0.8903  0.7794
  0.7794

 Free energy of the ion-electron system (eV)
  ---------------------------------------------------
  alpha Z        PSCENC =      1491.76369361
  Ewald energy   TEWEN  =    -25961.08410305
  -Hartree energ DENC   =    -11370.23555785
  -exchange      EXHF   =         0.00000000
  -V(xc)+E(xc)   XCENC  =      1495.86686378
  PAW double counting   =     41621.76094144   -40958.17378383
  entropy T*S    EENTRO =         0.00000000
  eigenvalues    EBANDS =     -4076.41313268
  atomic energy  EATOM  =     37080.84622879
  Solvation  Ediel_sol  =         0.00000000
  ---------------------------------------------------
  free energy    TOTEN  =      -675.66884979 eV

  energy without entropy =     -675.66884979  energy(sigma->0) =     -675.66884979


--------------------------------------------------------------------------------------------------------




--------------------------------------- Iteration      1(  17)  ---------------------------------------


    POTLOK:  cpu time    0.0524: real time    0.0628
    SETDIJ:  cpu time    0.0094: real time    0.0094
    EDDIAG:  cpu time    4.0314: real time    4.0311
WARNING in EDDRMM: call to ZHEGV failed, returncode =   8  4      4
WARNING in EDDRMM: call to ZHEGV failed, returncode =   8  4      4
  RMM-DIIS:  cpu time   18.8398: real time   18.8373
    ORTHCH:  cpu time    0.5823: real time    0.5823
 BZINTS: Fermi energy:  2.176695;464.000000 electrons
         Band energy:***********;  BLOECHL correction:  0.000000
       DOS:  cpu time    0.0083: real time    0.0083
    CHARGE:  cpu time    0.9927: real time    0.9926
    MIXING:  cpu time    0.0017: real time    0.0017
    --------------------------------------------
      LOOP:  cpu time   24.5180: real time   24.5254

 eigenvalue-minimisations  : 34653
 total energy-change (2. order) :-0.5136077E-04  (-0.5122124E-04)
 number of electron     464.0000019 magnetization 
 augmentation part       44.5383364 magnetization 

 Broyden mixing:
  rms(total) = 0.11379E-02    rms(broyden)= 0.11375E-02
  rms(prec ) = 0.13994E-02
  weight for this iteration     100.00

 eigenvalues of (default mixing * dielectric matrix)
  average eigenvalue GAMMA=   1.4648
  3.6393  2.7006  2.2184  1.2747  1.2747  1.1384  1.1384  1.0504  0.8508  0.8508
  0.7205  0.7205

 Free energy of the ion-electron system (eV)
  ---------------------------------------------------
  alpha Z        PSCENC =      1491.76369361
  Ewald energy   TEWEN  =    -25961.08410305
  -Hartree energ DENC   =    -11370.65908757
  -exchange      EXHF   =         0.00000000
  -V(xc)+E(xc)   XCENC  =      1495.88728528
  PAW double counting   =     41619.63946163   -40955.84495924
  entropy T*S    EENTRO =         0.00000000
  eigenvalues    EBANDS =     -4076.21742060
  atomic energy  EATOM  =     37080.84622879
  Solvation  Ediel_sol  =         0.00000000
  ---------------------------------------------------
  free energy    TOTEN  =      -675.66890115 eV

  energy without entropy =     -675.66890115  energy(sigma->0) =     -675.66890115


--------------------------------------------------------------------------------------------------------




--------------------------------------- Iteration      1(  18)  ---------------------------------------


    POTLOK:  cpu time    0.0489: real time    0.0638
    SETDIJ:  cpu time    0.0095: real time    0.0098
    EDDIAG:  cpu time    4.0196: real time    4.0192
  RMM-DIIS:  cpu time   18.5721: real time   18.5693
    ORTHCH:  cpu time    0.5818: real time    0.5818
 BZINTS: Fermi energy:  2.168612;464.000000 electrons
         Band energy:***********;  BLOECHL correction:  0.000000
       DOS:  cpu time    0.0083: real time    0.0083
    CHARGE:  cpu time    0.9931: real time    0.9930
    MIXING:  cpu time    0.0018: real time    0.0018
    --------------------------------------------
      LOOP:  cpu time   24.2351: real time   24.2472

 eigenvalue-minimisations  : 33923
 total energy-change (2. order) :-0.1780751E-04  (-0.2184316E-04)
 number of electron     464.0000019 magnetization 
 augmentation part       44.5368731 magnetization 

 Broyden mixing:
  rms(total) = 0.63730E-03    rms(broyden)= 0.63685E-03
  rms(prec ) = 0.71113E-03
  weight for this iteration     100.00

 eigenvalues of (default mixing * dielectric matrix)
  average eigenvalue GAMMA=   1.4458
  3.5108  2.6284  1.8230  1.6302  1.6302  1.2031  1.2031  1.0620  0.9754  0.8546
  0.8546  0.7099  0.7099

 Free energy of the ion-electron system (eV)
  ---------------------------------------------------
  alpha Z        PSCENC =      1491.76369361
  Ewald energy   TEWEN  =    -25961.08410305
[...]
 augmentation part       44.5690706 magnetization 

  free energy =  -0.678141992110E+03  energy without entropy=  -0.678141992110E+03


--------------------------------------------------------------------------------------------------------




------------------------ aborting loop because EDIFF is reached ----------------------------------------


    CHARGE:  cpu time    0.9914: real time    0.9912
    FORLOC:  cpu time    0.0159: real time    0.0159
    FORNL :  cpu time    7.2182: real time    7.2173
    STRESS:  cpu time   21.6712: real time   21.6689
    FORCOR:  cpu time    0.0488: real time    0.0488
    FORHAR:  cpu time    0.0226: real time    0.0226
    MIXING:  cpu time    0.0010: real time    0.0010
    OFIELD:  cpu time    0.0000: real time    0.0000

  FORCE on cell =-STRESS in cart. coord.  units (eV):
  Direction    XX          YY          ZZ          XY          YZ          ZX
  --------------------------------------------------------------------------------------
  Alpha Z  1491.76369  1491.76369  1491.76369
  Ewald   -8423.99451 -8354.48076 -8604.09824    45.21168   -36.72361    88.03761
  Hartree  3936.19561  4003.14488  4026.96050    39.51308   -35.09554    80.31664
  E(xc)   -2174.73049 -2174.73291 -2172.60691     0.09526    -0.02404     0.02491
  Local   -3290.85516 -3427.30437 -3195.90968   -84.99925    71.86242  -168.48969
  n-local -1213.86008 -1213.74713 -1197.10663    -0.61175     0.07110    -0.34456
  augment   516.24946   516.22749   511.68551     0.08480    -0.01128     0.03087
  Kinetic  9110.60416  9110.50067  9090.72784     0.70595    -0.08080     0.42328
  Fock        0.00000     0.00000     0.00000     0.00000     0.00000     0.00000
  -------------------------------------------------------------------------------------
  Total     -48.62731   -48.62841   -48.58391    -0.00023    -0.00176    -0.00094
  in kB     -84.46177   -84.46368   -84.38638    -0.00039    -0.00305    -0.00164
  external pressure =      -84.44 kB  Pullay stress =        0.00 kB



--------------------------------------------------------------------------------------------------------



  FREE ENERGIE OF THE ION-ELECTRON SYSTEM (eV)
  ---------------------------------------------------
  free  energy   TOTEN  =      -678.14199211 eV

  energy  without entropy=     -678.14199211  energy(sigma->0) =     -678.14199211
 
 d Force = 0.3159490E-04[ 0.209E-04, 0.423E-04]  d Energy = 0.3091287E-04 0.682E-06
 d Force = 0.1912504E+00[ 0.191E+00, 0.191E+00]  d Ewald  = 0.1958226E+00-0.457E-02


--------------------------------------------------------------------------------------------------------


    POTLOK:  cpu time    0.0559: real time    0.0560


--------------------------------------------------------------------------------------------------------


 Quasi-Newton relaxation of ions (Broydens 2nd method)
  g(Force)  = 0.814E-05   g(Stress)= 0.235E-06

 retain information from N=  1 steps
 eigenvalues of (default step * inverse Hessian matrix)
  average eigenvalue of G=  10.4842
 eigenvalue spectrum of G is 10.4842


--------------------------------------------------------------------------------------------------------


    WAVPRE:  cpu time    0.0234: real time    0.0261
    FEWALD:  cpu time    0.0022: real time    0.0023
    GENKIN:  cpu time    0.2008: real time    0.2008
    ORTHCH:  cpu time    2.8903: real time    2.8900
     LOOP+:  cpu time  119.9392: real time  119.9909


--------------------------------------- Iteration     40(   1)  ---------------------------------------


    POTLOK:  cpu time    0.0643: real time    0.0686
    SETDIJ:  cpu time    0.0094: real time    0.0094
     EDDAV:  cpu time   34.7201: real time   34.7165
 BZINTS: Fermi energy:  2.227519;464.000000 electrons
         Band energy:***********;  BLOECHL correction:  0.000000
       DOS:  cpu time    0.0099: real time    0.0099
    CHARGE:  cpu time    0.9903: real time    0.9902
    MIXING:  cpu time    0.0009: real time    0.0009
    --------------------------------------------
      LOOP:  cpu time   35.7949: real time   35.7955

 eigenvalue-minimisations  : 28512
 total energy-change (2. order) :-0.7833529E-05  (-0.2586184E-03)
 number of electron     464.0000022 magnetization 
 augmentation part       44.5689195 magnetization 

  free energy =  -0.678142000751E+03  energy without entropy=  -0.678142000751E+03


--------------------------------------------------------------------------------------------------------




--------------------------------------- Iteration     40(   2)  ---------------------------------------


    POTLOK:  cpu time    0.0476: real time    0.0624
    SETDIJ:  cpu time    0.0096: real time    0.0098
    EDDIAG:  cpu time    4.0018: real time    4.0015
  RMM-DIIS:  cpu time   12.2778: real time   12.2770
    ORTHCH:  cpu time    0.5763: real time    0.5762
 BZINTS: Fermi energy:  2.227487;464.000000 electrons
         Band energy:***********;  BLOECHL correction:  0.000000
       DOS:  cpu time    0.0098: real time    0.0098
    CHARGE:  cpu time    0.9925: real time    0.9924
    MIXING:  cpu time    0.0010: real time    0.0010
    --------------------------------------------
      LOOP:  cpu time   17.9164: real time   17.9301

 eigenvalue-minimisations  : 22675
 total energy-change (2. order) :-0.4686401E-05  (-0.5444069E-05)
 number of electron     464.0000022 magnetization 
 augmentation part       44.5689942 magnetization 

 eigenvalues of (default mixing * dielectric matrix)
  average eigenvalue GAMMA=   0.9069
  0.9069

  free energy =  -0.678142005438E+03  energy without entropy=  -0.678142005438E+03


--------------------------------------------------------------------------------------------------------




--------------------------------------- Iteration     40(   3)  ---------------------------------------


    POTLOK:  cpu time    0.0472: real time    0.0604
    SETDIJ:  cpu time    0.0097: real time    0.0098
    EDDIAG:  cpu time    4.0161: real time    4.0154
  RMM-DIIS:  cpu time    7.9878: real time    7.9869
    ORTHCH:  cpu time    0.5798: real time    0.5797
 BZINTS: Fermi energy:  2.227488;464.000000 electrons
         Band energy:***********;  BLOECHL correction:  0.000000
       DOS:  cpu time    0.0098: real time    0.0098
    CHARGE:  cpu time    0.9918: real time    0.9916
    MIXING:  cpu time    0.0011: real time    0.0011
    --------------------------------------------
      LOOP:  cpu time   13.6432: real time   13.6546

 eigenvalue-minimisations  : 11811
 total energy-change (2. order) : 0.6612463E-06  (-0.2166244E-06)
 number of electron     464.0000022 magnetization 
 augmentation part       44.5690479 magnetization 

 eigenvalues of (default mixing * dielectric matrix)
  average eigenvalue GAMMA=   1.2319
  1.2319  1.2319

  free energy =  -0.678142004776E+03  energy without entropy=  -0.678142004776E+03


--------------------------------------------------------------------------------------------------------




--------------------------------------- Iteration     40(   4)  ---------------------------------------


    POTLOK:  cpu time    0.0515: real time    0.0608
    SETDIJ:  cpu time    0.0096: real time    0.0098
    EDDIAG:  cpu time    3.9877: real time    3.9872
  RMM-DIIS:  cpu time    7.5570: real time    7.5562
    ORTHCH:  cpu time    0.5781: real time    0.5780
 BZINTS: Fermi energy:  2.227488;464.000000 electrons
         Band energy:***********;  BLOECHL correction:  0.000000
       DOS:  cpu time    0.0098: real time    0.0098
    --------------------------------------------
      LOOP:  cpu time   12.1937: real time   12.2019

 eigenvalue-minimisations  : 10991
 total energy-change (2. order) : 0.1245571E-06  (-0.9163261E-07)
 number of electron     464.0000022 magnetization 
 augmentation part       44.5690479 magnetization 

  free energy =  -0.678142004652E+03  energy without entropy=  -0.678142004652E+03


--------------------------------------------------------------------------------------------------------




------------------------ aborting loop because EDIFF is reached ----------------------------------------


    CHARGE:  cpu time    0.9942: real time    0.9940
    FORLOC:  cpu time    0.0160: real time    0.0160
    FORNL :  cpu time    7.2228: real time    7.2219
    STRESS:  cpu time   21.6566: real time   21.6538
    FORCOR:  cpu time    0.0490: real time    0.0490
    FORHAR:  cpu time    0.0226: real time    0.0226
    MIXING:  cpu time    0.0011: real time    0.0011
    OFIELD:  cpu time    0.0000: real time    0.0000

  FORCE on cell =-STRESS in cart. coord.  units (eV):
  Direction    XX          YY          ZZ          XY          YZ          ZX
  --------------------------------------------------------------------------------------
  Alpha Z  1491.76369  1491.76369  1491.76369
  Ewald   -8423.96637 -8354.45745 -8604.33355    45.22407   -36.70033    88.05274
  Hartree  3936.15970  4003.11418  4026.86043    39.52196   -35.08085    80.32735
  E(xc)   -2174.72603 -2174.72866 -2172.60198     0.09540    -0.02395     0.02509
  Local   -3290.84672 -3427.29649 -3195.58483   -85.02088    71.82434  -168.51588
  n-local -1213.86061 -1213.74784 -1197.10895    -0.61185     0.07053    -0.34502
  augment   516.25009   516.22809   511.68610     0.08488    -0.01118     0.03093
  Kinetic  9110.57943  9110.47635  9090.71819     0.70641    -0.08006     0.42361
  Fock        0.00000     0.00000     0.00000     0.00000     0.00000     0.00000
  -------------------------------------------------------------------------------------
  Total     -48.64681   -48.64812   -48.60090    -0.00002    -0.00151    -0.00118
  in kB     -84.49564   -84.49792   -84.41589    -0.00004    -0.00262    -0.00205
  external pressure =      -84.47 kB  Pullay stress =        0.00 kB



--------------------------------------------------------------------------------------------------------



  FREE ENERGIE OF THE ION-ELECTRON SYSTEM (eV)
  ---------------------------------------------------
  free  energy   TOTEN  =      -678.14200465 eV

  energy  without entropy=     -678.14200465  energy(sigma->0) =     -678.14200465
 
 d Force = 0.1301033E-04[ 0.122E-04, 0.138E-04]  d Energy = 0.1254192E-04 0.468E-06
 d Force = 0.1838585E+00[ 0.184E+00, 0.184E+00]  d Ewald  = 0.1838600E+00-0.148E-05


--------------------------------------------------------------------------------------------------------


    POTLOK:  cpu time    0.0560: real time    0.0562


--------------------------------------------------------------------------------------------------------


 Quasi-Newton relaxation of ions (Broydens 2nd method)
  g(Force)  = 0.738E-05   g(Stress)= 0.263E-06

 retain information from N=  1 steps
 eigenvalues of (default step * inverse Hessian matrix)
  average eigenvalue of G=   4.1134
 eigenvalue spectrum of G is  4.1134


--------------------------------------------------------------------------------------------------------


    WAVPRE:  cpu time    0.0233: real time    0.0257
    FEWALD:  cpu time    0.0022: real time    0.0025
    GENKIN:  cpu time    0.2012: real time    0.2012
    ORTHCH:  cpu time    2.8937: real time    2.8934
     LOOP+:  cpu time  112.7540: real time  112.8383


--------------------------------------- Iteration     41(   1)  ---------------------------------------


    POTLOK:  cpu time    0.0603: real time    0.0644
    SETDIJ:  cpu time    0.0093: real time    0.0093
     EDDAV:  cpu time   31.5228: real time   31.5189
 BZINTS: Fermi energy:  2.227497;464.000000 electrons
         Band energy:***********;  BLOECHL correction:  0.000000
       DOS:  cpu time    0.0098: real time    0.0098
    CHARGE:  cpu time    0.9922: real time    0.9920
    MIXING:  cpu time    0.0009: real time    0.0009
    --------------------------------------------
      LOOP:  cpu time   32.5954: real time   32.5954

 eigenvalue-minimisations  : 25920
 total energy-change (2. order) :-0.1438981E-05  (-0.1538042E-02)
 number of electron     464.0000021 magnetization 
 augmentation part       44.5684716 magnetization 

  free energy =  -0.678142006215E+03  energy without entropy=  -0.678142006215E+03


--------------------------------------------------------------------------------------------------------




--------------------------------------- Iteration     41(   2)  ---------------------------------------


    POTLOK:  cpu time    0.0463: real time    0.0573
    SETDIJ:  cpu time    0.0092: real time    0.0092
    EDDIAG:  cpu time    3.9924: real time    3.9920
  RMM-DIIS:  cpu time   12.1199: real time   12.1184
    ORTHCH:  cpu time    0.5762: real time    0.5761
 BZINTS: Fermi energy:  2.227453;464.000000 electrons
         Band energy:***********;  BLOECHL correction:  0.000000
       DOS:  cpu time    0.0098: real time    0.0098
    CHARGE:  cpu time    0.9923: real time    0.9921
    MIXING:  cpu time    0.0010: real time    0.0010
    --------------------------------------------
      LOOP:  cpu time   17.7473: real time   17.7561

 eigenvalue-minimisations  : 22418
 total energy-change (2. order) :-0.2767410E-04  (-0.3121542E-04)
 number of electron     464.0000021 magnetization 
 augmentation part       44.5686192 magnetization 

 eigenvalues of (default mixing * dielectric matrix)
  average eigenvalue GAMMA=   0.9188
  0.9188

  free energy =  -0.678142033890E+03  energy without entropy=  -0.678142033890E+03


--------------------------------------------------------------------------------------------------------




--------------------------------------- Iteration     41(   3)  ---------------------------------------


    POTLOK:  cpu time    0.0465: real time    0.0643
    SETDIJ:  cpu time    0.0094: real time    0.0094
    EDDIAG:  cpu time    3.9929: real time    3.9925
  RMM-DIIS:  cpu time   13.6088: real time   13.6071
    ORTHCH:  cpu time    0.5771: real time    0.5771
 BZINTS: Fermi energy:  2.227455;464.000000 electrons
         Band energy:***********;  BLOECHL correction:  0.000000
       DOS:  cpu time    0.0098: real time    0.0098
    CHARGE:  cpu time    0.9928: real time    0.9927
    MIXING:  cpu time    0.0011: real time    0.0011
    --------------------------------------------
      LOOP:  cpu time   19.2385: real time   19.2540

 eigenvalue-minimisations  : 22697
 total energy-change (2. order) : 0.2654349E-05  (-0.1547511E-05)
 number of electron     464.0000021 magnetization 
 augmentation part       44.5687663 magnetization 

 eigenvalues of (default mixing * dielectric matrix)
  average eigenvalue GAMMA=   1.3669
  1.3669  1.3669

  free energy =  -0.678142031235E+03  energy without entropy=  -0.678142031235E+03


--------------------------------------------------------------------------------------------------------




--------------------------------------- Iteration     41(   4)  ---------------------------------------


    POTLOK:  cpu time    0.0464: real time    0.0660
    SETDIJ:  cpu time    0.0095: real time    0.0097
    EDDIAG:  cpu time    3.9999: real time    3.9994
  RMM-DIIS:  cpu time   11.0917: real time   11.0900
    ORTHCH:  cpu time    0.5773: real time    0.5773
 BZINTS: Fermi energy:  2.227450;464.000000 electrons
         Band energy:***********;  BLOECHL correction:  0.000000
       DOS:  cpu time    0.0098: real time    0.0098
    --------------------------------------------
      LOOP:  cpu time   15.7346: real time   15.7522

 eigenvalue-minimisations  : 19079
 total energy-change (2. order) : 0.7501367E-06  (-0.5146061E-06)
 number of electron     464.0000021 magnetization 
 augmentation part       44.5687663 magnetization 

  free energy =  -0.678142030485E+03  energy without entropy=  -0.678142030485E+03


--------------------------------------------------------------------------------------------------------




------------------------ aborting loop because EDIFF is reached ----------------------------------------


    CHARGE:  cpu time    0.9894: real time    0.9893
    FORLOC:  cpu time    0.0159: real time    0.0159
    FORNL :  cpu time    7.2472: real time    7.2465
    STRESS:  cpu time   21.7082: real time   21.7060
    FORCOR:  cpu time    0.0489: real time    0.0489
    FORHAR:  cpu time    0.0225: real time    0.0225
    MIXING:  cpu time    0.0011: real time    0.0011
    OFIELD:  cpu time    0.0000: real time    0.0000

  FORCE on cell =-STRESS in cart. coord.  units (eV):
  Direction    XX          YY          ZZ          XY          YZ          ZX
  --------------------------------------------------------------------------------------
  Alpha Z  1491.76369  1491.76369  1491.76369
  Ewald   -8423.92345 -8354.43275 -8604.92564    45.23957   -36.64265    88.09585
  Hartree  3936.04698  4003.00782  4026.59683    39.53534   -35.04556    80.35327
  E(xc)   -2174.71486 -2174.71800 -2172.58997     0.09564    -0.02386     0.02548
  Local   -3290.76734 -3427.20625 -3194.75900   -85.05059    71.73158  -168.58557
  n-local -1213.86711 -1213.74945 -1197.11454    -0.61226     0.07056    -0.34587
  augment   516.25117   516.22901   511.68683     0.08503    -0.01097     0.03115
  Kinetic  9110.52187  9110.41977  9090.69645     0.70798    -0.07820     0.42447
  Fock        0.00000     0.00000     0.00000     0.00000     0.00000     0.00000
  -------------------------------------------------------------------------------------
  Total     -48.68904   -48.68616   -48.64535     0.00071     0.00091    -0.00123
  in kB     -84.56899   -84.56398   -84.49309     0.00123     0.00159    -0.00213
  external pressure =      -84.54 kB  Pullay stress =        0.00 kB



--------------------------------------------------------------------------------------------------------



  FREE ENERGIE OF THE ION-ELECTRON SYSTEM (eV)
  ---------------------------------------------------
  free  energy   TOTEN  =      -678.14203049 eV

  energy  without entropy=     -678.14203049  energy(sigma->0) =     -678.14203049
 
 d Force = 0.2650528E-04[ 0.201E-04, 0.330E-04]  d Energy = 0.2583315E-04 0.672E-06
 d Force = 0.5258412E+00[ 0.526E+00, 0.526E+00]  d Ewald  = 0.5244440E+00 0.140E-02


--------------------------------------------------------------------------------------------------------


    POTLOK:  cpu time    0.0557: real time    0.0557


--------------------------------------------------------------------------------------------------------


 Quasi-Newton relaxation of ions (Broydens 2nd method)
  g(Force)  = 0.521E-05   g(Stress)= 0.217E-06

 retain information from N=  1 steps
 eigenvalues of (default step * inverse Hessian matrix)
  average eigenvalue of G=  10.5646
 eigenvalue spectrum of G is 10.5646


--------------------------------------------------------------------------------------------------------


  
 reached required accuracy - stopping structural energy minimisation
     LOOP+:  cpu time  115.4659: real time  115.5494
    4ORBIT:  cpu time    0.0000: real time    0.0000

 total amount of memory used by VASP MPI-rank0   176180. kBytes
=======================================================================

   base      :      30000. kBytes
   nonlr-proj:      62274. kBytes
   fftplans  :       4575. kBytes
   grid      :      26165. kBytes
   one-center:       1244. kBytes
   wavefun   :      51922. kBytes
 
  
  
 General timing and accounting informations for this job:
 ========================================================
  
                  Total CPU time used (sec):     8095.297
                            User time (sec):     7958.443
                          System time (sec):      136.854
                         Elapsed time (sec):     8104.875
  
                   Maximum memory used (kb):      419440.
                   Average memory used (kb):           0.
  
                          Minor page faults:     27886705
                          Major page faults:           49
                 Voluntary context switches:        84063
