 running on   72 total cores
 distrk:  each k-point on   72 cores,    1 groups
 distr:  one band on    1 cores,   72 groups
 using from now: INCAR     
 vasp.5.4.4.18Apr17-6-g9f103f2a35 (build Mar 05 2020 17:21:05) complex          
  
 POSCAR found type information on POSCAR  Li Nb O  Ta
 POSCAR found :  4 types and      80 ions

 ----------------------------------------------------------------------------- 
|                                                                             |
|           W    W    AA    RRRRR   N    N  II  N    N   GGGG   !!!           |
|           W    W   A  A   R    R  NN   N  II  NN   N  G    G  !!!           |
|           W    W  A    A  R    R  N N  N  II  N N  N  G       !!!           |
|           W WW W  AAAAAA  RRRRR   N  N N  II  N  N N  G  GGG   !            |
|           WW  WW  A    A  R   R   N   NN  II  N   NN  G    G                |
|           W    W  A    A  R    R  N    N  II  N    N   GGGG   !!!           |
|                                                                             |
|      For optimal performance we recommend to set                            |
|        NCORE= 4 - approx SQRT( number of cores)                             |
|      NCORE specifies how many cores store one orbital (NPAR=cpu/NCORE).     |
|      This setting can  greatly improve the performance of VASP for DFT.     |
|      The default,   NCORE=1            might be grossly inefficient         |
|      on modern multi-core architectures or massively parallel machines.     |
|      Do your own testing !!!!                                               |
|      Unfortunately you need to use the default for GW and RPA calculations. |
|      (for HF NCORE is supported but not extensively tested yet)             |
|                                                                             |
 ----------------------------------------------------------------------------- 



 VERY BAD NEWS! internal error in subroutine IBZKPT:
 Reciprocal lattice and k-lattice belong to different class of lattices. Often results are still useful...     168


 VERY BAD NEWS! internal error in subroutine IBZKPT:
 Reciprocal lattice and k-lattice belong to different class of lattices. Often results are still useful...     168


 VERY BAD NEWS! internal error in subroutine IBZKPT:
 Reciprocal lattice and k-lattice belong to different class of lattices. Often results are still useful...     168


 VERY BAD NEWS! internal error in subroutine IBZKPT:
 Reciprocal lattice and k-lattice belong to different class of lattices. Often results are still useful...     168


 VERY BAD NEWS! internal error in subroutine IBZKPT:
 Reciprocal lattice and k-lattice belong to different class of lattices. Often results are still useful...     168


 VERY BAD NEWS! internal error in subroutine IBZKPT:
 Reciprocal lattice and k-lattice belong to different class of lattices. Often results are still useful...     168


 VERY BAD NEWS! internal error in subroutine IBZKPT:
 Reciprocal lattice and k-lattice belong to different class of lattices. Often results are still useful...     168


 VERY BAD NEWS! internal error in subroutine IBZKPT:
 Reciprocal lattice and k-lattice belong to different class of lattices. Often results are still useful...     168


 VERY BAD NEWS! internal error in subroutine IBZKPT:
 Reciprocal lattice and k-lattice belong to different class of lattices. Often results are still useful...     168


 VERY BAD NEWS! internal error in subroutine IBZKPT:
 Reciprocal lattice and k-lattice belong to different class of lattices. Often results are still useful...     168


 VERY BAD NEWS! internal error in subroutine IBZKPT:
 Reciprocal lattice and k-lattice belong to different class of lattices. Often results are still useful...     168


 VERY BAD NEWS! internal error in subroutine IBZKPT:
 Reciprocal lattice and k-lattice belong to different class of lattices. Often results are still useful...     168


 VERY BAD NEWS! internal error in subroutine IBZKPT:
 Reciprocal lattice and k-lattice belong to different class of lattices. Often results are still useful...     168


 VERY BAD NEWS! internal error in subroutine IBZKPT:
 Reciprocal lattice and k-lattice belong to different class of lattices. Often results are still useful...     168


 VERY BAD NEWS! internal error in subroutine IBZKPT:
 Reciprocal lattice and k-lattice belong to different class of lattices. Often results are still useful...     168


 VERY BAD NEWS! internal error in subroutine IBZKPT:
 Reciprocal lattice and k-lattice belong to different class of lattices. Often results are still useful...     168


 VERY BAD NEWS! internal error in subroutine IBZKPT:
 Reciprocal lattice and k-lattice belong to different class of lattices. Often results are still useful...     168


 VERY BAD NEWS! internal error in subroutine IBZKPT:
 Reciprocal lattice and k-lattice belong to different class of lattices. Often results are still useful...     168


 VERY BAD NEWS! internal error in subroutine IBZKPT:
 Reciprocal lattice and k-lattice belong to different class of lattices. Often results are still useful...     168


 VERY BAD NEWS! internal error in subroutine IBZKPT:
 Reciprocal lattice and k-lattice belong to different class of lattices. Often results are still useful...     168


 VERY BAD NEWS! internal error in subroutine IBZKPT:
 Reciprocal lattice and k-lattice belong to different class of lattices. Often results are still useful...     168


 VERY BAD NEWS! internal error in subroutine IBZKPT:
 Reciprocal lattice and k-lattice belong to different class of lattices. Often results are still useful...     168


 VERY BAD NEWS! internal error in subroutine IBZKPT:
 Reciprocal lattice and k-lattice belong to different class of lattices. Often results are still useful...     168


 VERY BAD NEWS! internal error in subroutine IBZKPT:
 Reciprocal lattice and k-lattice belong to different class of lattices. Often results are still useful...     168


 VERY BAD NEWS! internal error in subroutine IBZKPT:
 Reciprocal lattice and k-lattice belong to different class of lattices. Often results are still useful...     168


 VERY BAD NEWS! internal error in subroutine IBZKPT:
 Reciprocal lattice and k-lattice belong to different class of lattices. Often results are still useful...     168


 VERY BAD NEWS! internal error in subroutine IBZKPT:
 Reciprocal lattice and k-lattice belong to different class of lattices. Often results are still useful...     168


 VERY BAD NEWS! internal error in subroutine IBZKPT:
 Reciprocal lattice and k-lattice belong to different class of lattices. Often results are still useful...     168


 VERY BAD NEWS! internal error in subroutine IBZKPT:
 Reciprocal lattice and k-lattice belong to different class of lattices. Often results are still useful...     168


 VERY BAD NEWS! internal error in subroutine IBZKPT:
 Reciprocal lattice and k-lattice belong to different class of lattices. Often results are still useful...     168


 VERY BAD NEWS! internal error in subroutine IBZKPT:
 Reciprocal lattice and k-lattice belong to different class of lattices. Often results are still useful...     168


 VERY BAD NEWS! internal error in subroutine IBZKPT:
 Reciprocal lattice and k-lattice belong to different class of lattices. Often results are still useful...     168


 VERY BAD NEWS! internal error in subroutine IBZKPT:
 Reciprocal lattice and k-lattice belong to different class of lattices. Often results are still useful...     168


 VERY BAD NEWS! internal error in subroutine IBZKPT:
 Reciprocal lattice and k-lattice belong to different class of lattices. Often results are still useful...     168


 VERY BAD NEWS! internal error in subroutine IBZKPT:
 Reciprocal lattice and k-lattice belong to different class of lattices. Often results are still useful...     168


 VERY BAD NEWS! internal error in subroutine IBZKPT:
 Reciprocal lattice and k-lattice belong to different class of lattices. Often results are still useful...     168


 VERY BAD NEWS! internal error in subroutine IBZKPT:
 Reciprocal lattice and k-lattice belong to different class of lattices. Often results are still useful...     168


 VERY BAD NEWS! internal error in subroutine IBZKPT:
 Reciprocal lattice and k-lattice belong to different class of lattices. Often results are still useful...     168


 VERY BAD NEWS! internal error in subroutine IBZKPT:
 Reciprocal lattice and k-lattice belong to different class of lattices. Often results are still useful...     168


 VERY BAD NEWS! internal error in subroutine IBZKPT:
 Reciprocal lattice and k-lattice belong to different class of lattices. Often results are still useful...     168


 VERY BAD NEWS! internal error in subroutine IBZKPT:
 Reciprocal lattice and k-lattice belong to different class of lattices. Often results are still useful...     168


 VERY BAD NEWS! internal error in subroutine IBZKPT:
 Reciprocal lattice and k-lattice belong to different class of lattices. Often results are still useful...     168


 VERY BAD NEWS! internal error in subroutine IBZKPT:
 Reciprocal lattice and k-lattice belong to different class of lattices. Often results are still useful...     168


 VERY BAD NEWS! internal error in subroutine IBZKPT:
 Reciprocal lattice and k-lattice belong to different class of lattices. Often results are still useful...     168


 VERY BAD NEWS! internal error in subroutine IBZKPT:
 Reciprocal lattice and k-lattice belong to different class of lattices. Often results are still useful...     168


 VERY BAD NEWS! internal error in subroutine IBZKPT:
 Reciprocal lattice and k-lattice belong to different class of lattices. Often results are still useful...     168

 ----------------------------------------------------------------------------- 
|                                                                             |
|  ADVICE TO THIS USER RUNNING 'VASP/VAMP'   (HEAR YOUR MASTER'S VOICE ...):  |
|                                                                             |
|      You enforced a specific xc-type in the INCAR file,                     |
|      a different type was found on the POTCAR file                          |
|          I HOPE YOU KNOW, WHAT YOU ARE  DOING                               |
|                                                                             |
 ----------------------------------------------------------------------------- 



 VERY BAD NEWS! internal error in subroutine IBZKPT:
 Reciprocal lattice and k-lattice belong to different class of lattices. Often results are still useful...     168


 VERY BAD NEWS! internal error in subroutine IBZKPT:
 Reciprocal lattice and k-lattice belong to different class of lattices. Often results are still useful...     168
 LDA part: xc-table for Pade appr. of Perdew


 VERY BAD NEWS! internal error in subroutine IBZKPT:
 Reciprocal lattice and k-lattice belong to different class of lattices. Often results are still useful...     168


 VERY BAD NEWS! internal error in subroutine IBZKPT:
 Reciprocal lattice and k-lattice belong to different class of lattices. Often results are still useful...     168


 VERY BAD NEWS! internal error in subroutine IBZKPT:
 Reciprocal lattice and k-lattice belong to different class of lattices. Often results are still useful...     168


 VERY BAD NEWS! internal error in subroutine IBZKPT:
 Reciprocal lattice and k-lattice belong to different class of lattices. Often results are still useful...     168


 VERY BAD NEWS! internal error in subroutine IBZKPT:
 Reciprocal lattice and k-lattice belong to different class of lattices. Often results are still useful...     168


 VERY BAD NEWS! internal error in subroutine IBZKPT:
 Reciprocal lattice and k-lattice belong to different class of lattices. Often results are still useful...     168


 VERY BAD NEWS! internal error in subroutine IBZKPT:
 Reciprocal lattice and k-lattice belong to different class of lattices. Often results are still useful...     168


 VERY BAD NEWS! internal error in subroutine IBZKPT:
 Reciprocal lattice and k-lattice belong to different class of lattices. Often results are still useful...     168


 VERY BAD NEWS! internal error in subroutine IBZKPT:
 Reciprocal lattice and k-lattice belong to different class of lattices. Often results are still useful...     168


 VERY BAD NEWS! internal error in subroutine IBZKPT:
 Reciprocal lattice and k-lattice belong to different class of lattices. Often results are still useful...     168


 VERY BAD NEWS! internal error in subroutine IBZKPT:
 Reciprocal lattice and k-lattice belong to different class of lattices. Often results are still useful...     168


 VERY BAD NEWS! internal error in subroutine IBZKPT:
 Reciprocal lattice and k-lattice belong to different class of lattices. Often results are still useful...     168


 VERY BAD NEWS! internal error in subroutine IBZKPT:
 Reciprocal lattice and k-lattice belong to different class of lattices. Often results are still useful...     168


 VERY BAD NEWS! internal error in subroutine IBZKPT:
 Reciprocal lattice and k-lattice belong to different class of lattices. Often results are still useful...     168


 VERY BAD NEWS! internal error in subroutine IBZKPT:
 Reciprocal lattice and k-lattice belong to different class of lattices. Often results are still useful...     168


 VERY BAD NEWS! internal error in subroutine IBZKPT:
 Reciprocal lattice and k-lattice belong to different class of lattices. Often results are still useful...     168


 VERY BAD NEWS! internal error in subroutine IBZKPT:
 Reciprocal lattice and k-lattice belong to different class of lattices. Often results are still useful...     168


 VERY BAD NEWS! internal error in subroutine IBZKPT:
 Reciprocal lattice and k-lattice belong to different class of lattices. Often results are still useful...     168


 VERY BAD NEWS! internal error in subroutine IBZKPT:
 Reciprocal lattice and k-lattice belong to different class of lattices. Often results are still useful...     168


 VERY BAD NEWS! internal error in subroutine IBZKPT:
 Reciprocal lattice and k-lattice belong to different class of lattices. Often results are still useful...     168


 VERY BAD NEWS! internal error in subroutine IBZKPT:
 Reciprocal lattice and k-lattice belong to different class of lattices. Often results are still useful...     168


 VERY BAD NEWS! internal error in subroutine IBZKPT:
 Reciprocal lattice and k-lattice belong to different class of lattices. Often results are still useful...     168


 VERY BAD NEWS! internal error in subroutine IBZKPT:
 Reciprocal lattice and k-lattice belong to different class of lattices. Often results are still useful...     168


 VERY BAD NEWS! internal error in subroutine IBZKPT:
 Reciprocal lattice and k-lattice belong to different class of lattices. Often results are still useful...     168
 POSCAR, INCAR and KPOINTS ok, starting setup
 FFT: planning ...
 WAVECAR not read
 entering main loop
       N       E                     dE             d eps       ncg     rms          rms(c)
DAV:   1     0.355498908253E+04    0.35550E+04   -0.24222E+05 20736   0.146E+03
DAV:   2    -0.552761909106E+03   -0.41078E+04   -0.40483E+04 31104   0.445E+02
DAV:   3    -0.802267522004E+03   -0.24951E+03   -0.24855E+03 31104   0.104E+02
DAV:   4    -0.813308057221E+03   -0.11041E+02   -0.11031E+02 36288   0.215E+01
DAV:   5    -0.813557871118E+03   -0.24981E+00   -0.24981E+00 31752   0.212E+00    0.920E+01
RMM:   6    -0.686526521004E+03    0.12703E+03   -0.73344E+02 24207   0.409E+01    0.414E+01
RMM:   7    -0.675955093537E+03    0.10571E+02   -0.37555E+01 25249   0.181E+01    0.195E+01
RMM:   8    -0.675741119979E+03    0.21397E+00   -0.16084E+01 25116   0.646E+00    0.669E+00
RMM:   9    -0.675662072131E+03    0.79048E-01   -0.26029E+00 32079   0.316E+00    0.263E+00
RMM:  10    -0.675654814281E+03    0.72578E-02   -0.61113E-01 31469   0.147E+00    0.892E-01
RMM:  11    -0.675664192108E+03   -0.93778E-02   -0.16355E-01 34482   0.580E-01    0.458E-01
RMM:  12    -0.675667689400E+03   -0.34973E-02   -0.55125E-02 34412   0.300E-01    0.416E-01
RMM:  13    -0.675669870533E+03   -0.21811E-02   -0.18821E-02 34501   0.225E-01    0.308E-01
RMM:  14    -0.675668440578E+03    0.14300E-02   -0.13114E-02 32795   0.205E-01    0.111E-01
RMM:  15    -0.675668744709E+03   -0.30413E-03   -0.40446E-03 34854   0.758E-02    0.434E-02
RMM:  16    -0.675668849787E+03   -0.10508E-03   -0.12371E-03 34584   0.416E-02    0.412E-02
WARNING in EDDRMM: call to ZHEGV failed, returncode =   8  4      4
WARNING in EDDRMM: call to ZHEGV failed, returncode =   8  4      4
RMM:  17    -0.675668901148E+03   -0.51361E-04   -0.51221E-04 34653   0.295E-02    0.114E-02
RMM:  18    -0.675668918955E+03   -0.17808E-04   -0.21843E-04 33923   0.185E-02    0.637E-03
 num prob  num prob  num prob  num prob  num prob  num prob RMM:  19    -0.675668927988E+03   -0.90327E-05   -0.90984E-05 29673   0.112E-02    0.926E-03
WARNING in EDDRMM: call to ZHEGV failed, returncode =   6  3      3
RMM:  20    -0.675668932654E+03   -0.46666E-05   -0.38189E-05 26863   0.796E-03    0.638E-03
 num prob  num prob  num prob  num prob  num prob  num prob  num prob  num prob  num prob  num prob  num prob RMM:  21    -0.675668934676E+03   -0.20215E-05   -0.12802E-05 21865   0.597E-03    0.315E-03
 num prob  num prob  num prob  num prob  num prob RMM:  22    -0.675668936026E+03   -0.13499E-05   -0.82628E-06 19835   0.503E-03    0.889E-04
 num prob  num prob  num prob RMM:  23    -0.675668936425E+03   -0.39946E-06   -0.25863E-06 16244   0.412E-03
   1 F= -.67566894E+03 E0= -.67566894E+03  d E =-.675669E+03
 BRION: g(F)=  0.817E+00 g(S)=  0.117E-01
 bond charge predicted
       N       E                     dE             d eps       ncg     rms          rms(c)
DAV:   1    -0.676298717276E+03   -0.62978E+00   -0.65509E+01 26136   0.182E+01    0.224E+00
RMM:   2    -0.676441811262E+03   -0.14309E+00   -0.17599E+00 23925   0.323E+00    0.138E+00
RMM:   3    -0.676422424046E+03    0.19387E-01   -0.11521E-01 25791   0.117E+00    0.972E-01
RMM:   4    -0.676421783997E+03    0.64005E-03   -0.33873E-02 30528   0.289E-01    0.431E-01
RMM:   5    -0.676421984651E+03   -0.20065E-03   -0.62056E-03 33604   0.153E-01    0.118E-01
RMM:   6    -0.676422143885E+03   -0.15923E-03   -0.24452E-03 36355   0.588E-02    0.351E-02
WARNING in EDDRMM: call to ZHEGV failed, returncode =   8  4      4
RMM:   7    -0.676422203622E+03   -0.59737E-04   -0.71835E-04 36776   0.373E-02    0.267E-02
RMM:   8    -0.676422228578E+03   -0.24956E-04   -0.26789E-04 35986   0.208E-02    0.510E-03
WARNING in EDDRMM: call to ZHEGV failed, returncode =   8  4      4
RMM:   9    -0.676422240056E+03   -0.11478E-04   -0.11979E-04 34514   0.150E-02    0.250E-03
 num prob  num prob  num prob  num prob RMM:  10    -0.676422244394E+03   -0.43375E-05   -0.45536E-05 29767   0.883E-03    0.218E-03
 num prob  num prob  num prob WARNING in EDDRMM: call to ZHEGV failed, returncode =   6  3      4
 num prob RMM:  11    -0.676422246678E+03   -0.22842E-05   -0.22085E-05 26918   0.706E-03    0.209E-03
 num prob  num prob  num prob  num prob  num prob  num prob  num prob  num prob  num prob  num prob  num prob  num prob  num prob  num prob  num prob  num prob RMM:  12    -0.676422247660E+03   -0.98231E-06   -0.11138E-05 22568   0.550E-03    0.684E-04
 num prob  num prob  num prob RMM:  13    -0.676422247865E+03   -0.20526E-06   -0.37521E-06 18688   0.401E-03
   2 F= -.67642225E+03 E0= -.67642225E+03  d E =-.753311E+00
 BRION: g(F)=  0.543E+00 g(S)=  0.512E-02 retain N=  1 mean eig= 3.20
 eig:   3.202
 bond charge predicted
       N       E                     dE             d eps       ncg     rms          rms(c)
DAV:   1    -0.675445715347E+03    0.97653E+00   -0.95311E+02 20736   0.700E+01    0.970E+00
RMM:   2    -0.677917673154E+03   -0.24720E+01   -0.29808E+01 24271   0.131E+01    0.639E+00
RMM:   3    -0.677504612881E+03    0.41306E+00   -0.17912E+00 26168   0.466E+00    0.430E+00
RMM:   4    -0.677473613779E+03    0.30999E-01   -0.81645E-01 25842   0.143E+00    0.127E+00
RMM:   5    -0.677464970800E+03    0.86430E-02   -0.85097E-02 30279   0.749E-01    0.610E-01
RMM:   6    -0.677465547280E+03   -0.57648E-03   -0.40738E-02 35413   0.283E-01    0.191E-01
RMM:   7    -0.677466137241E+03   -0.58996E-03   -0.10264E-02 36340   0.150E-01    0.120E-01
WARNING in EDDRMM: call to ZHEGV failed, returncode =   6  3      3
RMM:   8    -0.677466482125E+03   -0.34488E-03   -0.38406E-03 36903   0.780E-02    0.605E-02
RMM:   9    -0.677466599716E+03   -0.11759E-03   -0.13421E-03 36849   0.536E-02    0.213E-02
RMM:  10    -0.677466653369E+03   -0.53653E-04   -0.58963E-04 36326   0.320E-02    0.111E-02
WARNING in EDDRMM: call to ZHEGV failed, returncode =   8  4      4
RMM:  11    -0.677466675720E+03   -0.22351E-04   -0.23918E-04 35105   0.216E-02    0.646E-03
WARNING in EDDRMM: call to ZHEGV failed, returncode =   8  4      3
RMM:  12    -0.677949458302E+03   -0.48278E+00   -0.48278E+00 33730   0.136E-02    0.237E+01
 num prob  num prob  num prob  num prob RMM:  13    -0.677000895788E+03    0.94856E+00   -0.52103E-05 30604   0.101E-02    0.729E-02
RMM:  14    -0.677000729388E+03    0.16640E-03   -0.47214E-04 29250   0.361E-02    0.480E-02
RMM:  15    -0.677000710679E+03    0.18709E-04   -0.83274E-05 29412   0.175E-02    0.228E-02
RMM:  16    -0.677000701889E+03    0.87897E-05   -0.30751E-05 28902   0.112E-02    0.161E-02
RMM:  17    -0.677000701675E+03    0.21407E-06   -0.67493E-06 22137   0.479E-03
   3 F= -.67700070E+03 E0= -.67700070E+03  d E =-.578454E+00
 BRION: g(F)=  0.201E+00 g(S)=  0.146E-01 retain N=  1 mean eig= 1.96
 eig:   1.958
 bond charge predicted
       N       E                     dE             d eps       ncg     rms          rms(c)
DAV:   1    -0.677258294984E+03   -0.25759E+00   -0.11195E+02 23472   0.241E+01    0.344E+00
RMM:   2    -0.677604282051E+03   -0.34599E+00   -0.42603E+00 23955   0.468E+00    0.245E+00
RMM:   3    -0.677553066155E+03    0.51216E-01   -0.27041E-01 27800   0.131E+00    0.173E+00
RMM:   4    -0.677554670248E+03   -0.16041E-02   -0.82587E-02 31440   0.408E-01    0.406E-01
RMM:   5    -0.677555505053E+03   -0.83481E-03   -0.14118E-02 32054   0.197E-01    0.101E-01
RMM:   6    -0.677555678375E+03   -0.17332E-03   -0.36980E-03 36551   0.762E-02    0.436E-02
RMM:   7    -0.677555791145E+03   -0.11277E-03   -0.13578E-03 36414   0.479E-02    0.222E-02
WARNING in EDDRMM: call to ZHEGV failed, returncode =   8  4      2
RMM:   8    -0.677555832379E+03   -0.41234E-04   -0.49520E-04 36440   0.266E-02    0.607E-03
RMM:   9    -0.677555851658E+03   -0.19279E-04   -0.21159E-04 34955   0.180E-02    0.371E-03
RMM:  10    -0.677555857862E+03   -0.62042E-05   -0.73302E-05 29863   0.109E-02    0.239E-03
 num prob RMM:  11    -0.677555861953E+03   -0.40909E-05   -0.47393E-05 29502   0.847E-03    0.106E-03
 num prob  num prob  num prob  num prob  num prob  num prob  num prob  num prob  num prob  num prob  num prob  num prob  num prob  num prob  num prob  num prob  num prob  num prob  num prob  num prob RMM:  12    -0.677555862980E+03   -0.10269E-05   -0.15058E-05 21420   0.550E-03    0.840E-04
 num prob  num prob WARNING in EDDRMM: call to ZHEGV failed, returncode =   6  3      4
 num prob  num prob  num prob  num prob  num prob RMM:  13    -0.677555863254E+03   -0.27451E-06   -0.61477E-06 20010   0.434E-03
   4 F= -.67755586E+03 E0= -.67755586E+03  d E =-.555162E+00
 BRION: g(F)=  0.628E-01 g(S)=  0.129E-02 retain N=  1 mean eig= 2.09
 eig:   2.091
 bond charge predicted
       N       E                     dE             d eps       ncg     rms          rms(c)
DAV:   1    -0.677617820125E+03   -0.61957E-01   -0.95589E+00 25920   0.661E+00    0.688E-01
RMM:   2    -0.677633529529E+03   -0.15709E-01   -0.18692E-01 22498   0.101E+00    0.441E-01
RMM:   3    -0.677631314461E+03    0.22151E-02   -0.11187E-02 23772   0.390E-01    0.356E-01
RMM:   4    -0.677631196161E+03    0.11830E-03   -0.30135E-03 30238   0.827E-02    0.201E-01
RMM:   5    -0.677631177982E+03    0.18179E-04   -0.66435E-04 31026   0.499E-02    0.345E-02
WARNING in EDDRMM: call to ZHEGV failed, returncode =   6  3      4
RMM:   6    -0.677631181140E+03   -0.31579E-05   -0.18005E-04 33065   0.202E-02    0.127E-02
WARNING in EDDRMM: call to ZHEGV failed, returncode =   8  4      3
RMM:   7    -0.678572230502E+03   -0.94105E+00   -0.94105E+00 33627   0.104E-02    0.115E+01
 num prob WARNING in EDDRMM: call to ZHEGV failed, returncode =   8  4      2
RMM:   8    -0.677432936480E+03    0.11393E+01   -0.20177E-05 24703   0.635E-03    0.715E-02
RMM:   9    -0.677626190341E+03   -0.19325E+00   -0.32349E-01 28774   0.423E-02    0.484E-02
RMM:  10    -0.677630331871E+03   -0.41415E-02   -0.44748E-02 26250   0.174E-02    0.255E-02
RMM:  11    -0.677630800910E+03   -0.46904E-03   -0.69437E-03 26931   0.922E-03    0.158E-02
RMM:  12    -0.677631044820E+03   -0.24391E-03   -0.27404E-03 20415   0.512E-03    0.118E-02
RMM:  13    -0.677631126116E+03   -0.81296E-04   -0.96924E-04 13149   0.438E-03    0.925E-03
RMM:  14    -0.677631164488E+03   -0.38372E-04   -0.43279E-04 12470   0.357E-03    0.803E-03
RMM:  15    -0.677631177264E+03   -0.12776E-04   -0.17297E-04 19543   0.507E-03    0.226E-03
RMM:  16    -0.677631183902E+03   -0.66374E-05   -0.75411E-05 12415   0.309E-03    0.210E-03
RMM:  17    -0.677631186570E+03   -0.26677E-05   -0.30269E-05 12346   0.254E-03    0.106E-03
RMM:  18    -0.677631187795E+03   -0.12257E-05   -0.13573E-05 12257   0.207E-03    0.140E-03
RMM:  19    -0.677631188344E+03   -0.54888E-06   -0.57196E-06 12026   0.170E-03
   5 F= -.67763119E+03 E0= -.67763119E+03  d E =-.753251E-01
 BRION: g(F)=  0.462E-01 g(S)=  0.225E-02 retain N=  1 mean eig= 0.78
 eig:   0.781
 bond charge predicted
       N       E                     dE             d eps       ncg     rms          rms(c)
DAV:   1    -0.677697213210E+03   -0.66025E-01   -0.14844E+01 21528   0.808E+00    0.690E-01
RMM:   2    -0.677720776314E+03   -0.23563E-01   -0.27306E-01 22609   0.120E+00    0.416E-01
RMM:   3    -0.677718144658E+03    0.26317E-02   -0.16198E-02 24196   0.429E-01    0.269E-01
RMM:   4    -0.677717699160E+03    0.44550E-03   -0.58614E-03 23517   0.115E-01    0.755E-02
RMM:   5    -0.677717689129E+03    0.10031E-04   -0.57449E-04 30628   0.557E-02    0.318E-02
RMM:   6    -0.677717699163E+03   -0.10034E-04   -0.18985E-04 35354   0.170E-02    0.115E-02
RMM:   7    -0.677717704608E+03   -0.54444E-05   -0.51662E-05 33005   0.999E-03    0.619E-03
WARNING in EDDRMM: call to ZHEGV failed, returncode =   6  3      3
 num prob  num prob  num prob RMM:   8    -0.677717706716E+03   -0.21081E-05   -0.14325E-05 22863   0.556E-03    0.237E-03
 num prob RMM:   9    -0.677717707988E+03   -0.12719E-05   -0.10253E-05 22297   0.479E-03    0.121E-03
 num prob  num prob  num prob  num prob  num prob  num prob  num prob  num prob  num prob  num prob  num prob  num prob  num prob  num prob  num prob  num prob  num prob  num prob  num prob  num prob  num prob  num prob  num prob  num prob RMM:  10    -0.677717708109E+03   -0.12122E-06   -0.10880E-06 14190   0.350E-03
   6 F= -.67771771E+03 E0= -.67771771E+03  d E =-.865198E-01
 BRION: g(F)=  0.364E-01 g(S)=  0.270E-02 retain N=  1 mean eig= 6.40
 eig:   6.395
 bond charge predicted
       N       E                     dE             d eps       ncg     rms          rms(c)
DAV:   1    -0.677783475346E+03   -0.65767E-01   -0.39765E+01 20736   0.134E+01    0.109E+00
RMM:   2    -0.677850189397E+03   -0.66714E-01   -0.77709E-01 22707   0.208E+00    0.593E-01
RMM:   3    -0.677842713828E+03    0.74756E-02   -0.47423E-02 25153   0.731E-01    0.346E-01
RMM:   4    -0.677841164501E+03    0.15493E-02   -0.13604E-02 25144   0.181E-01    0.108E-01
RMM:   5    -0.677841182041E+03   -0.17540E-04   -0.17474E-03 31310   0.947E-02    0.504E-02
RMM:   6    -0.677841235544E+03   -0.53503E-04   -0.63473E-04 36141   0.293E-02    0.196E-02
RMM:   7    -0.677841251463E+03   -0.15918E-04   -0.15199E-04 35087   0.167E-02    0.980E-03
RMM:   8    -0.677841257381E+03   -0.59180E-05   -0.50558E-05 31679   0.937E-03    0.400E-03
WARNING in EDDRMM: call to ZHEGV failed, returncode =   6  3      3
RMM:   9    -0.677841260911E+03   -0.35299E-05   -0.28272E-05 28338   0.717E-03    0.171E-03
 num prob  num prob  num prob  num prob  num prob RMM:  10    -0.677841261588E+03   -0.67749E-06   -0.69084E-06 19885   0.467E-03
   7 F= -.67784126E+03 E0= -.67784126E+03  d E =-.123553E+00
 BRION: g(F)=  0.252E-01 g(S)=  0.255E-02
 BRIONS problems: POTIM should be increased
 retain N=  1 mean eig=24.88
 eig:  24.875
 bond charge predicted
       N       E                     dE             d eps       ncg     rms          rms(c)
DAV:   1    -0.677750983187E+03    0.90278E-01   -0.17725E+02 20736   0.286E+01    0.234E+00
RMM:   2    -0.678067993007E+03   -0.31701E+00   -0.36928E+00 22894   0.455E+00    0.123E+00
RMM:   3    -0.678030895068E+03    0.37098E-01   -0.22385E-01 25682   0.157E+00    0.723E-01
RMM:   4    -0.678022832038E+03    0.80630E-02   -0.53781E-02 26847   0.362E-01    0.277E-01
RMM:   5    -0.678022384382E+03    0.44766E-03   -0.10294E-02 30760   0.208E-01    0.101E-01
RMM:   6    -0.678022641741E+03   -0.25736E-03   -0.30175E-03 35564   0.678E-02    0.487E-02
RMM:   7    -0.678022701437E+03   -0.59697E-04   -0.67006E-04 35309   0.375E-02    0.218E-02
RMM:   8    -0.678022728780E+03   -0.27342E-04   -0.28327E-04 35081   0.214E-02    0.896E-03
WARNING in EDDRMM: call to ZHEGV failed, returncode =   8  4      4
RMM:   9    -0.678022741004E+03   -0.12224E-04   -0.11125E-04 33569   0.137E-02    0.432E-03
 num prob RMM:  10    -0.678022745322E+03   -0.43184E-05   -0.46229E-05 29301   0.879E-03    0.264E-03
 num prob WARNING in EDDRMM: call to ZHEGV failed, returncode =   6  3      3
 num prob  num prob RMM:  11    -0.678022747844E+03   -0.25222E-05   -0.23020E-05 25376   0.643E-03    0.111E-03
 num prob  num prob RMM:  12    -0.678022748525E+03   -0.68094E-06   -0.78415E-06 19881   0.474E-03
   8 F= -.67802275E+03 E0= -.67802275E+03  d E =-.181487E+00
 BRION: g(F)=  0.991E-02 g(S)=  0.139E-02
 BRIONS problems: POTIM should be increased
 retain N=  1 mean eig=24.64
 eig:  24.635
 bond charge predicted
       N       E                     dE             d eps       ncg     rms          rms(c)
DAV:   1    -0.677896811763E+03    0.12594E+00   -0.12882E+02 20736   0.245E+01    0.202E+00
RMM:   2    -0.678129848859E+03   -0.23304E+00   -0.27356E+00 22930   0.396E+00    0.103E+00
RMM:   3    -0.678101504182E+03    0.28345E-01   -0.16841E-01 25964   0.134E+00    0.606E-01
RMM:   4    -0.678095973882E+03    0.55303E-02   -0.37003E-02 28040   0.303E-01    0.238E-01
RMM:   5    -0.678095595204E+03    0.37868E-03   -0.75469E-03 30988   0.173E-01    0.807E-02
RMM:   6    -0.678095797861E+03   -0.20266E-03   -0.22371E-03 35076   0.589E-02    0.382E-02
RMM:   7    -0.678095846007E+03   -0.48146E-04   -0.51162E-04 35008   0.321E-02    0.170E-02
RMM:   8    -0.678095867435E+03   -0.21428E-04   -0.21486E-04 34130   0.179E-02    0.876E-03
WARNING in EDDRMM: call to ZHEGV failed, returncode =   8  4      3
RMM:   9    -0.678095877321E+03   -0.98867E-05   -0.85407E-05 33375   0.126E-02    0.298E-03
 num prob RMM:  10    -0.678095880502E+03   -0.31804E-05   -0.36792E-05 27352   0.766E-03    0.240E-03
 num prob WARNING in EDDRMM: call to ZHEGV failed, returncode =   8  4      3
WARNING in EDDRMM: call to ZHEGV failed, returncode =   6  3      3
WARNING in EDDRMM: call to ZHEGV failed, returncode =   8  4      4
WARNING in EDDRMM: call to ZHEGV failed, returncode =   6  3      4
WARNING in EDDRMM: call to ZHEGV failed, returncode =   8  4      4
WARNING in EDDRMM: call to ZHEGV failed, returncode =   8  4      4
WARNING in EDDRMM: call to ZHEGV failed, returncode =   8  4      3
WARNING in EDDRMM: call to ZHEGV failed, returncode =   6  3      4
RMM:  11    -0.678095882559E+03   -0.20568E-05   -0.18206E-05 23887   0.587E-03    0.118E-03
WARNING in EDDRMM: call to ZHEGV failed, returncode =   6  3      3
 num prob  num prob  num prob  num prob  num prob  num prob  num prob  num prob  num prob RMM:  12    -0.678095883072E+03   -0.51298E-06   -0.57104E-06 19121   0.429E-03
   9 F= -.67809588E+03 E0= -.67809588E+03  d E =-.731345E-01
 BRION: g(F)=  0.351E-02 g(S)=  0.422E-03
 BRIONS problems: POTIM should be increased
 retain N=  1 mean eig=19.04
 eig:  19.036
 bond charge predicted
       N       E                     dE             d eps       ncg     rms          rms(c)
DAV:   1    -0.678078322977E+03    0.17560E-01   -0.18070E+01 20736   0.928E+00    0.788E-01
RMM:   2    -0.678111172133E+03   -0.32849E-01   -0.39375E-01 22914   0.153E+00    0.390E-01
RMM:   3    -0.678106879865E+03    0.42923E-02   -0.24842E-02 26508   0.506E-01    0.224E-01
RMM:   4    -0.678106129167E+03    0.75070E-03   -0.52031E-03 28436   0.118E-01    0.767E-02
RMM:   5    -0.678106123236E+03    0.59304E-05   -0.94879E-04 31762   0.636E-02    0.301E-02
RMM:   6    -0.678106156544E+03   -0.33308E-04   -0.32845E-04 35210   0.217E-02    0.134E-02
RMM:   7    -0.678106165490E+03   -0.89463E-05   -0.80040E-05 32491   0.126E-02    0.478E-03
WARNING in EDDRMM: call to ZHEGV failed, returncode =   6  3      4
 num prob RMM:   8    -0.678106168919E+03   -0.34288E-05   -0.31770E-05 26774   0.747E-03    0.278E-03
 num prob  num prob WARNING in EDDRMM: call to ZHEGV failed, returncode =   8  4      4
RMM:   9    -0.678106171152E+03   -0.22328E-05   -0.18240E-05 24719   0.590E-03    0.121E-03
 num prob  num prob  num prob  num prob  num prob  num prob  num prob  num prob  num prob  num prob  num prob  num prob  num prob  num prob  num prob  num prob  num prob  num prob  num prob  num prob  num prob  num prob  num prob RMM:  10    -0.678106171444E+03   -0.29198E-06   -0.34356E-06 16698   0.382E-03
  10 F= -.67810617E+03 E0= -.67810617E+03  d E =-.102884E-01
 BRION: g(F)=  0.245E-02 g(S)=  0.119E-03
 BRIONS problems: POTIM should be increased
 retain N=  1 mean eig=13.99
 eig:  13.989
 bond charge predicted
       N       E                     dE             d eps       ncg     rms          rms(c)
DAV:   1    -0.678105253340E+03    0.91781E-03   -0.28762E+00 28080   0.378E+00    0.338E-01
RMM:   2    -0.678110325000E+03   -0.50717E-02   -0.63775E-02 22481   0.628E-01    0.169E-01
RMM:   3    -0.678109520956E+03    0.80404E-03   -0.37427E-03 27279   0.184E-01    0.888E-02
RMM:   4    -0.678109386657E+03    0.13430E-03   -0.99741E-04 27783   0.556E-02    0.174E-02
RMM:   5    -0.678109396590E+03   -0.99322E-05   -0.16250E-04 29905   0.283E-02    0.126E-02
RMM:   6    -0.678109401381E+03   -0.47915E-05   -0.46799E-05 32869   0.913E-03    0.576E-03
WARNING in EDDRMM: call to ZHEGV failed, returncode =   6  3      3
WARNING in EDDRMM: call to ZHEGV failed, returncode =   8  4      4
RMM:   7    -0.678109403331E+03   -0.19495E-05   -0.16460E-05 24544   0.623E-03    0.209E-03
 num prob  num prob  num prob  num prob  num prob  num prob  num prob  num prob  num prob  num prob  num prob  num prob  num prob  num prob  num prob  num prob  num prob  num prob  num prob  num prob  num prob  num prob  num prob RMM:   8    -0.678109403708E+03   -0.37740E-06   -0.31565E-06 17766   0.439E-03
  11 F= -.67810940E+03 E0= -.67810940E+03  d E =-.323226E-02
 BRION: g(F)=  0.199E-02 g(S)=  0.260E-04
 BRIONS problems: POTIM should be increased
 retain N=  1 mean eig=10.70
 eig:  10.704
 bond charge predicted
       N       E                     dE             d eps       ncg     rms          rms(c)
DAV:   1    -0.678109529447E+03   -0.12612E-03   -0.17456E+00 26496   0.300E+00    0.275E-01
RMM:   2    -0.678112864198E+03   -0.33348E-02   -0.42075E-02 22410   0.519E-01    0.141E-01
RMM:   3    -0.678112360097E+03    0.50410E-03   -0.25480E-03 28100   0.149E-01    0.718E-02
RMM:   4    -0.678112282465E+03    0.77632E-04   -0.62561E-04 30125   0.442E-02    0.160E-02
RMM:   5    -0.678112290280E+03   -0.78154E-05   -0.11376E-04 31518   0.200E-02    0.103E-02
WARNING in EDDRMM: call to ZHEGV failed, returncode =   8  4      4
WARNING in EDDRMM: call to ZHEGV failed, returncode =   8  4      2
RMM:   6    -0.678112293193E+03   -0.29126E-05   -0.27299E-05 29004   0.758E-03    0.410E-03
WARNING in EDDRMM: call to ZHEGV failed, returncode =   8  4      4
WARNING in EDDRMM: call to ZHEGV failed, returncode =   8  4      4
RMM:   7    -0.678112294957E+03   -0.17647E-05   -0.15365E-05 24099   0.580E-03    0.177E-03
 num prob  num prob  num prob  num prob  num prob  num prob  num prob  num prob  num prob  num prob  num prob  num prob  num prob  num prob  num prob  num prob  num prob  num prob  num prob  num prob  num prob  num prob  num prob  num prob  num prob  num prob  num prob  num prob  num prob  num prob  num prob  num prob  num prob  num prob  num prob  num prob  num prob  num prob  num prob  num prob  num prob  num prob  num prob  num prob  num prob  num prob  num prob  num prob  num prob RMM:   8    -0.678112295094E+03   -0.13707E-06   -0.91583E-07 15820   0.400E-03
  12 F= -.67811230E+03 E0= -.67811230E+03  d E =-.289139E-02
 BRION: g(F)=  0.164E-02 g(S)=  0.527E-06
 BRIONS problems: POTIM should be increased
 retain N=  1 mean eig= 9.39
 eig:   9.394
 bond charge predicted
       N       E                     dE             d eps       ncg     rms          rms(c)
DAV:   1    -0.678114051890E+03   -0.17569E-02   -0.31692E-01 28512   0.131E+00    0.117E-01
RMM:   2    -0.678114726450E+03   -0.67456E-03   -0.83803E-03 22087   0.235E-01    0.611E-02
RMM:   3    -0.678114639623E+03    0.86828E-04   -0.49712E-04 28546   0.676E-02    0.322E-02
RMM:   4    -0.678114627813E+03    0.11810E-04   -0.12458E-04 32102   0.199E-02    0.841E-03
RMM:   5    -0.678114629772E+03   -0.19593E-05   -0.25939E-05 29442   0.866E-03    0.490E-03
 num prob  num prob  num prob  num prob  num prob  num prob  num prob  num prob  num prob  num prob  num prob  num prob  num prob  num prob  num prob  num prob  num prob  num prob  num prob  num prob  num prob  num prob  num prob  num prob  num prob  num prob  num prob  num prob  num prob  num prob  num prob  num prob  num prob  num prob  num prob  num prob  num prob  num prob  num prob RMM:   6    -0.678114630137E+03   -0.36434E-06   -0.26415E-06 18112   0.418E-03
  13 F= -.67811463E+03 E0= -.67811463E+03  d E =-.233504E-02
 BRION: g(F)=  0.141E-02 g(S)=  0.989E-05 retain N=  1 mean eig= 7.58
 eig:   7.579
 bond charge predicted
       N       E                     dE             d eps       ncg     rms          rms(c)
DAV:   1    -0.678117198215E+03   -0.25684E-02   -0.40349E-01 26784   0.149E+00    0.118E-01
RMM:   2    -0.678118091419E+03   -0.89320E-03   -0.10684E-02 22099   0.267E-01    0.615E-02
RMM:   3    -0.678118006637E+03    0.84782E-04   -0.64098E-04 28018   0.773E-02    0.352E-02
RMM:   4    -0.678117993346E+03    0.13291E-04   -0.16009E-04 31994   0.224E-02    0.101E-02
RMM:   5    -0.678117995885E+03   -0.25394E-05   -0.33279E-05 30531   0.100E-02    0.593E-03
 num prob  num prob  num prob  num prob  num prob  num prob  num prob  num prob  num prob  num prob  num prob  num prob  num prob  num prob RMM:   6    -0.678117996576E+03   -0.69020E-06   -0.63423E-06 21472   0.471E-03
  14 F= -.67811800E+03 E0= -.67811800E+03  d E =-.336644E-02
 BRION: g(F)=  0.115E-02 g(S)=  0.345E-04 retain N=  1 mean eig= 5.93
 eig:   5.933
 bond charge predicted
       N       E                     dE             d eps       ncg     rms          rms(c)
DAV:   1    -0.678120654586E+03   -0.26587E-02   -0.28867E-01 27360   0.124E+00    0.831E-02
RMM:   2    -0.678121253719E+03   -0.59913E-03   -0.69296E-03 22010   0.213E-01    0.411E-02
RMM:   3    -0.678121209300E+03    0.44419E-04   -0.40454E-04 25823   0.646E-02    0.269E-02
RMM:   4    -0.678121201566E+03    0.77336E-05   -0.11212E-04 30453   0.182E-02    0.892E-03
RMM:   5    -0.678121202967E+03   -0.14011E-05   -0.20496E-05 28851   0.871E-03    0.527E-03
 num prob  num prob  num prob  num prob  num prob  num prob  num prob  num prob  num prob  num prob  num prob  num prob  num prob  num prob  num prob  num prob  num prob  num prob  num prob  num prob  num prob  num prob  num prob  num prob  num prob  num prob  num prob  num prob  num prob  num prob  num prob  num prob  num prob  num prob  num prob  num prob  num prob  num prob  num prob RMM:   6    -0.678121203193E+03   -0.22560E-06   -0.16646E-06 16956   0.405E-03
  15 F= -.67812120E+03 E0= -.67812120E+03  d E =-.320662E-02
 BRION: g(F)=  0.957E-03 g(S)=  0.544E-04 retain N=  1 mean eig= 3.31
 eig:   3.312
 bond charge predicted
       N       E                     dE             d eps       ncg     rms          rms(c)
DAV:   1    -0.678124477878E+03   -0.32749E-02   -0.57103E-01 25488   0.171E+00    0.110E-01
RMM:   2    -0.678125587762E+03   -0.11099E-02   -0.12782E-02 22289   0.287E-01    0.528E-02
RMM:   3    -0.678125507269E+03    0.80492E-04   -0.73186E-04 25574   0.873E-02    0.350E-02
RMM:   4    -0.678125491782E+03    0.15487E-04   -0.20442E-04 29585   0.241E-02    0.124E-02
RMM:   5    -0.678125493245E+03   -0.14628E-05   -0.32451E-05 29994   0.112E-02    0.680E-03
 num prob  num prob RMM:   6    -0.678125494214E+03   -0.96895E-06   -0.87859E-06 22715   0.468E-03
  16 F= -.67812549E+03 E0= -.67812549E+03  d E =-.429102E-02
 BRION: g(F)=  0.755E-03 g(S)=  0.714E-04 retain N=  1 mean eig= 0.93
 eig:   0.935
 bond charge predicted
       N       E                     dE             d eps       ncg     rms          rms(c)
DAV:   1    -0.678128485285E+03   -0.29920E-02   -0.62187E-01 24768   0.175E+00    0.119E-01
RMM:   2    -0.678129591756E+03   -0.11065E-02   -0.13002E-02 22573   0.284E-01    0.569E-02
RMM:   3    -0.678129489620E+03    0.10214E-03   -0.74206E-04 25810   0.852E-02    0.360E-02
RMM:   4    -0.678129468786E+03    0.20834E-04   -0.22262E-04 27477   0.245E-02    0.106E-02
RMM:   5    -0.678129469301E+03   -0.51456E-06   -0.27402E-05 26948   0.111E-02    0.667E-03
 num prob  num prob WARNING in EDDRMM: call to ZHEGV failed, returncode =   6  3      3
 num prob RMM:   6    -0.678129470197E+03   -0.89591E-06   -0.80745E-06 21304   0.450E-03
  17 F= -.67812947E+03 E0= -.67812947E+03  d E =-.397598E-02
 BRION: g(F)=  0.601E-03 g(S)=  0.721E-04
 BRIONS problems: POTIM should be increased
 retain N=  1 mean eig= 8.63
 eig:   8.633
 bond charge predicted
       N       E                     dE             d eps       ncg     rms          rms(c)
DAV:   1    -0.678132211651E+03   -0.27424E-02   -0.11243E+00 23904   0.231E+00    0.169E-01
RMM:   2    -0.678134069822E+03   -0.18582E-02   -0.22424E-02 22511   0.368E-01    0.825E-02
RMM:   3    -0.678133877423E+03    0.19240E-03   -0.13542E-03 25472   0.117E-01    0.498E-02
RMM:   4    -0.678133837006E+03    0.40417E-04   -0.44922E-04 26037   0.337E-02    0.122E-02
RMM:   5    -0.678133837588E+03   -0.58267E-06   -0.46259E-05 27275   0.156E-02    0.893E-03
WARNING in EDDRMM: call to ZHEGV failed, returncode =   6  3      3
RMM:   6    -0.678133839319E+03   -0.17308E-05   -0.16538E-05 26488   0.522E-03    0.268E-03
 num prob  num prob RMM:   7    -0.678133839466E+03   -0.14713E-06   -0.39661E-06 16117   0.375E-03
  18 F= -.67813384E+03 E0= -.67813384E+03  d E =-.436927E-02
 BRION: g(F)=  0.460E-03 g(S)=  0.560E-04
 BRIONS problems: POTIM should be increased
 retain N=  1 mean eig=22.54
 eig:  22.535
 bond charge predicted
       N       E                     dE             d eps       ncg     rms          rms(c)
DAV:   1    -0.678135370350E+03   -0.15310E-02   -0.15023E+00 20808   0.263E+00    0.210E-01
RMM:   2    -0.678137819251E+03   -0.24489E-02   -0.30065E-02 22488   0.424E-01    0.100E-01
RMM:   3    -0.678137551308E+03    0.26794E-03   -0.18740E-03 25180   0.143E-01    0.651E-02
RMM:   4    -0.678137498709E+03    0.52599E-04   -0.49180E-04 27477   0.345E-02    0.229E-02
RMM:   5    -0.678137496597E+03    0.21125E-05   -0.72541E-05 28802   0.183E-02    0.949E-03
RMM:   6    -0.678137498645E+03   -0.20478E-05   -0.22818E-05 26320   0.626E-03    0.313E-03
 num prob  num prob WARNING in EDDRMM: call to ZHEGV failed, returncode =   8  4      4
 num prob RMM:   7    -0.678137499011E+03   -0.36581E-06   -0.57161E-06 18356   0.461E-03
  19 F= -.67813750E+03 E0= -.67813750E+03  d E =-.365954E-02
 BRION: g(F)=  0.358E-03 g(S)=  0.326E-04
 BRIONS problems: POTIM should be increased
 retain N=  1 mean eig=19.01
 eig:  19.008
 bond charge predicted
       N       E                     dE             d eps       ncg     rms          rms(c)
DAV:   1    -0.678138189966E+03   -0.69132E-03   -0.95465E-01 20736   0.207E+00    0.175E-01
RMM:   2    -0.678139690569E+03   -0.15006E-02   -0.18796E-02 22616   0.330E-01    0.841E-02
RMM:   3    -0.678139491797E+03    0.19877E-03   -0.11695E-03 25124   0.112E-01    0.544E-02
RMM:   4    -0.678139457306E+03    0.34491E-04   -0.30076E-04 27289   0.271E-02    0.208E-02
RMM:   5    -0.678139455112E+03    0.21941E-05   -0.49281E-05 28326   0.149E-02    0.727E-03
WARNING in EDDRMM: call to ZHEGV failed, returncode =   6  3      3
RMM:   6    -0.678139456264E+03   -0.11525E-05   -0.14185E-05 22452   0.531E-03    0.313E-03
RMM:   7    -0.678139456484E+03   -0.21922E-06   -0.39018E-06 17234   0.384E-03
  20 F= -.67813946E+03 E0= -.67813946E+03  d E =-.195747E-02
 BRION: g(F)=  0.289E-03 g(S)=  0.143E-04
 BRIONS problems: POTIM should be increased
 retain N=  1 mean eig=15.82
 eig:  15.817
 bond charge predicted
       N       E                     dE             d eps       ncg     rms          rms(c)
DAV:   1    -0.678139357256E+03    0.99009E-04   -0.96236E-01 20736   0.207E+00    0.177E-01
RMM:   2    -0.678140848529E+03   -0.14913E-02   -0.18825E-02 22637   0.329E-01    0.863E-02
RMM:   3    -0.678140637161E+03    0.21137E-03   -0.11813E-03 25105   0.112E-01    0.558E-02
RMM:   4    -0.678140601841E+03    0.35321E-04   -0.30027E-04 27441   0.271E-02    0.222E-02
RMM:   5    -0.678140598957E+03    0.28839E-05   -0.51701E-05 28648   0.150E-02    0.727E-03
WARNING in EDDRMM: call to ZHEGV failed, returncode =   8  4      4
RMM:   6    -0.678140600102E+03   -0.11455E-05   -0.14464E-05 22886   0.546E-03    0.306E-03
RMM:   7    -0.678140600327E+03   -0.22447E-06   -0.39679E-06 17559   0.386E-03
  21 F= -.67814060E+03 E0= -.67814060E+03  d E =-.114384E-02
 BRION: g(F)=  0.227E-03 g(S)=  0.267E-05
 BRIONS problems: POTIM should be increased
 retain N=  1 mean eig=14.67
 eig:  14.671
 bond charge predicted
       N       E                     dE             d eps       ncg     rms          rms(c)
DAV:   1    -0.678140495066E+03    0.10504E-03   -0.36671E-01 21600   0.129E+00    0.108E-01
RMM:   2    -0.678141069662E+03   -0.57460E-03   -0.72236E-03 22540   0.206E-01    0.532E-02
RMM:   3    -0.678140988850E+03    0.80812E-04   -0.45564E-04 25544   0.700E-02    0.343E-02
RMM:   4    -0.678140974312E+03    0.14537E-04   -0.11773E-04 27859   0.172E-02    0.122E-02
RMM:   5    -0.678140973729E+03    0.58356E-06   -0.19757E-05 27540   0.941E-03    0.451E-03
 num prob  num prob  num prob  num prob  num prob  num prob  num prob  num prob  num prob  num prob  num prob  num prob  num prob  num prob  num prob  num prob  num prob  num prob  num prob  num prob  num prob  num prob RMM:   6    -0.678140973927E+03   -0.19850E-06   -0.33713E-06 16399   0.374E-03
  22 F= -.67814097E+03 E0= -.67814097E+03  d E =-.373601E-03
 BRION: g(F)=  0.177E-03 g(S)=  0.137E-06
 BRIONS problems: POTIM should be increased
 retain N=  1 mean eig=14.38
 eig:  14.377
 bond charge predicted
       N       E                     dE             d eps       ncg     rms          rms(c)
DAV:   1    -0.678140497454E+03    0.47628E-03   -0.42292E-01 21888   0.140E+00    0.113E-01
RMM:   2    -0.678141179799E+03   -0.68234E-03   -0.84487E-03 22386   0.226E-01    0.557E-02
RMM:   3    -0.678141094698E+03    0.85100E-04   -0.53431E-04 25801   0.769E-02    0.361E-02
RMM:   4    -0.678141078157E+03    0.16541E-04   -0.14227E-04 28671   0.190E-02    0.118E-02
RMM:   5    -0.678141078007E+03    0.14979E-06   -0.23204E-05 28507   0.101E-02    0.481E-03
 num prob  num prob  num prob  num prob  num prob  num prob  num prob  num prob  num prob  num prob  num prob  num prob  num prob  num prob  num prob  num prob  num prob RMM:   6    -0.678141078345E+03   -0.33753E-06   -0.47982E-06 17987   0.401E-03
  23 F= -.67814108E+03 E0= -.67814108E+03  d E =-.104418E-03
 BRION: g(F)=  0.127E-03 g(S)=  0.928E-06
 BRIONS problems: POTIM should be increased
 retain N=  1 mean eig=14.64
 eig:  14.637
 bond charge predicted
       N       E                     dE             d eps       ncg     rms          rms(c)
DAV:   1    -0.678140952815E+03    0.12519E-03   -0.94583E-02 27000   0.676E-01    0.496E-02
RMM:   2    -0.678141113276E+03   -0.16046E-03   -0.19275E-03 22360   0.109E-01    0.248E-02
RMM:   3    -0.678141093576E+03    0.19699E-04   -0.10736E-04 26453   0.326E-02    0.161E-02
RMM:   4    -0.678141089690E+03    0.38858E-05   -0.32135E-05 27781   0.960E-03    0.395E-03
RMM:   5    -0.678141089839E+03   -0.14860E-06   -0.47087E-06 19705   0.499E-03
  24 F= -.67814109E+03 E0= -.67814109E+03  d E =-.114941E-04
 BRION: g(F)=  0.103E-03 g(S)=  0.192E-05
 BRIONS problems: POTIM should be increased
 retain N=  1 mean eig=15.23
 eig:  15.230
 bond charge predicted
       N       E                     dE             d eps       ncg     rms          rms(c)
DAV:   1    -0.678140793219E+03    0.29647E-03   -0.16261E-01 26064   0.896E-01    0.610E-02
RMM:   2    -0.678141076515E+03   -0.28330E-03   -0.33338E-03 22382   0.144E-01    0.313E-02
RMM:   3    -0.678141046775E+03    0.29740E-04   -0.17580E-04 25932   0.407E-02    0.202E-02
RMM:   4    -0.678141040846E+03    0.59288E-05   -0.59111E-05 27316   0.127E-02    0.489E-03
RMM:   5    -0.678141040989E+03   -0.14341E-06   -0.75801E-06 23092   0.648E-03
  25 F= -.67814104E+03 E0= -.67814104E+03  d E =0.488498E-04
 BRION: g(F)=  0.771E-04 g(S)=  0.304E-05
 BRIONS problems: POTIM should be increased
 retain N=  1 mean eig=15.73
 eig:  15.734
 bond charge predicted
       N       E                     dE             d eps       ncg     rms          rms(c)
DAV:   1    -0.678140991416E+03    0.49430E-04   -0.33528E-02 28368   0.413E-01    0.261E-02
RMM:   2    -0.678141053284E+03   -0.61868E-04   -0.70799E-04 22423   0.656E-02    0.138E-02
RMM:   3    -0.678141046728E+03    0.65563E-05   -0.34886E-05 24859   0.192E-02    0.896E-03
RMM:   4    -0.678141045824E+03    0.90336E-06   -0.13137E-05 24499   0.604E-03    0.255E-03
RMM:   5    -0.678141045835E+03   -0.10310E-07   -0.13167E-06 12622   0.333E-03
  26 F= -.67814105E+03 E0= -.67814105E+03  d E =-.484551E-05
 BRION: g(F)=  0.662E-04 g(S)=  0.291E-05
 BRIONS problems: POTIM should be increased
 retain N=  1 mean eig= 8.27
 eig:   8.273
 bond charge predicted
       N       E                     dE             d eps       ncg     rms          rms(c)
DAV:   1    -0.678140948436E+03    0.97389E-04   -0.64698E-02 26784   0.576E-01    0.360E-02
RMM:   2    -0.678141067462E+03   -0.11903E-03   -0.13592E-03 22216   0.923E-02    0.190E-02
RMM:   3    -0.678141057493E+03    0.99691E-05   -0.70528E-05 24932   0.290E-02    0.124E-02
RMM:   4    -0.678141055810E+03    0.16835E-05   -0.23037E-05 26397   0.797E-03    0.391E-03
RMM:   5    -0.678141055812E+03   -0.20082E-08   -0.25877E-06 14727   0.407E-03
  27 F= -.67814106E+03 E0= -.67814106E+03  d E =-.997695E-05
 BRION: g(F)=  0.565E-04 g(S)=  0.232E-05 retain N=  1 mean eig= 6.88
 eig:   6.875
 bond charge predicted
       N       E                     dE             d eps       ncg     rms          rms(c)
DAV:   1    -0.678141054621E+03    0.11881E-05   -0.22112E-02 27216   0.335E-01    0.217E-02
RMM:   2    -0.678141094720E+03   -0.40098E-04   -0.45855E-04 22315   0.533E-02    0.113E-02
RMM:   3    -0.678141090967E+03    0.37528E-05   -0.24257E-05 25091   0.158E-02    0.720E-03
RMM:   4    -0.678141090403E+03    0.56408E-06   -0.76570E-06 23017   0.482E-03
  28 F= -.67814109E+03 E0= -.67814109E+03  d E =-.345914E-04
 BRION: g(F)=  0.510E-04 g(S)=  0.176E-05
 BRIONS problems: POTIM should be increased
 retain N=  1 mean eig= 9.11
 eig:   9.105
 bond charge predicted
       N       E                     dE             d eps       ncg     rms          rms(c)
DAV:   1    -0.678141108923E+03   -0.17956E-04   -0.28115E-02 27360   0.375E-01    0.254E-02
RMM:   2    -0.678141157380E+03   -0.48456E-04   -0.56213E-04 22224   0.589E-02    0.132E-02
RMM:   3    -0.678141152739E+03    0.46404E-05   -0.30139E-05 25788   0.165E-02    0.807E-03
RMM:   4    -0.678141151964E+03    0.77514E-06   -0.92458E-06 23903   0.524E-03
  29 F= -.67814115E+03 E0= -.67814115E+03  d E =-.615612E-04
 BRION: g(F)=  0.459E-04 g(S)=  0.115E-05
 BRIONS problems: POTIM should be increased
 retain N=  1 mean eig=10.45
 eig:  10.452
 bond charge predicted
       N       E                     dE             d eps       ncg     rms          rms(c)
DAV:   1    -0.678141190713E+03   -0.37974E-04   -0.25045E-02 27504   0.350E-01    0.248E-02
RMM:   2    -0.678141232532E+03   -0.41819E-04   -0.49160E-04 22352   0.544E-02    0.128E-02
RMM:   3    -0.678141228015E+03    0.45164E-05   -0.26952E-05 25675   0.154E-02    0.764E-03
RMM:   4    -0.678141227280E+03    0.73544E-06   -0.80771E-06 23545   0.490E-03
  30 F= -.67814123E+03 E0= -.67814123E+03  d E =-.753156E-04
 BRION: g(F)=  0.417E-04 g(S)=  0.688E-06
 BRIONS problems: POTIM should be increased
 retain N=  1 mean eig=13.55
 eig:  13.548
 bond charge predicted
       N       E                     dE             d eps       ncg     rms          rms(c)
DAV:   1    -0.678141284099E+03   -0.56084E-04   -0.24070E-02 26928   0.339E-01    0.251E-02
RMM:   2    -0.678141323185E+03   -0.39087E-04   -0.46463E-04 22404   0.525E-02    0.128E-02
RMM:   3    -0.678141318742E+03    0.44438E-05   -0.26101E-05 25176   0.149E-02    0.751E-03
RMM:   4    -0.678141318003E+03    0.73893E-06   -0.76996E-06 23182   0.477E-03
  31 F= -.67814132E+03 E0= -.67814132E+03  d E =-.907228E-04
 BRION: g(F)=  0.377E-04 g(S)=  0.322E-06
 BRIONS problems: POTIM should be increased
 retain N=  1 mean eig=14.40
 eig:  14.404
 bond charge predicted
       N       E                     dE             d eps       ncg     rms          rms(c)
DAV:   1    -0.678141387036E+03   -0.68295E-04   -0.23759E-02 25704   0.335E-01    0.254E-02
RMM:   2    -0.678141425556E+03   -0.38519E-04   -0.46099E-04 22330   0.524E-02    0.128E-02
RMM:   3    -0.678141421334E+03    0.42212E-05   -0.26970E-05 25138   0.158E-02    0.760E-03
RMM:   4    -0.678141420563E+03    0.77186E-06   -0.76418E-06 23065   0.474E-03
  32 F= -.67814142E+03 E0= -.67814142E+03  d E =-.102560E-03
 BRION: g(F)=  0.332E-04 g(S)=  0.138E-06
 BRIONS problems: POTIM should be increased
 retain N=  1 mean eig=18.67
 eig:  18.670
 bond charge predicted
       N       E                     dE             d eps       ncg     rms          rms(c)
DAV:   1    -0.678141488737E+03   -0.67402E-04   -0.48385E-02 23688   0.477E-01    0.363E-02
RMM:   2    -0.678141567398E+03   -0.78661E-04   -0.94515E-04 22367   0.751E-02    0.181E-02
RMM:   3    -0.678141559189E+03    0.82084E-05   -0.57082E-05 26035   0.238E-02    0.109E-02
RMM:   4    -0.678141557567E+03    0.16219E-05   -0.15385E-05 25142   0.644E-03    0.294E-03
RMM:   5    -0.678141557601E+03   -0.33513E-07   -0.14758E-06 12611   0.371E-03
  33 F= -.67814156E+03 E0= -.67814156E+03  d E =-.137038E-03
 BRION: g(F)=  0.289E-04 g(S)=  0.698E-08
 BRIONS problems: POTIM should be increased
 retain N=  1 mean eig=17.50
 eig:  17.504
 bond charge predicted
       N       E                     dE             d eps       ncg     rms          rms(c)
DAV:   1    -0.678141616569E+03   -0.59002E-04   -0.11008E-02 27936   0.228E-01    0.168E-02
RMM:   2    -0.678141634946E+03   -0.18377E-04   -0.21887E-04 22591   0.358E-02    0.827E-03
RMM:   3    -0.678141632593E+03    0.23531E-05   -0.12063E-05 22235   0.103E-02    0.492E-03
RMM:   4    -0.678141632165E+03    0.42815E-06   -0.36116E-06 16069   0.373E-03
  34 F= -.67814163E+03 E0= -.67814163E+03  d E =-.745639E-04
 BRION: g(F)=  0.259E-04 g(S)=  0.210E-08
 BRIONS problems: POTIM should be increased
 retain N=  1 mean eig=21.42
 eig:  21.417
 bond charge predicted
       N       E                     dE             d eps       ncg     rms          rms(c)
DAV:   1    -0.678141697884E+03   -0.65291E-04   -0.52142E-02 23976   0.498E-01    0.364E-02
RMM:   2    -0.678141785825E+03   -0.87942E-04   -0.10480E-03 22485   0.794E-02    0.177E-02
RMM:   3    -0.678141776417E+03    0.94082E-05   -0.61634E-05 25808   0.253E-02    0.112E-02
RMM:   4    -0.678141774668E+03    0.17488E-05   -0.17074E-05 25600   0.672E-03    0.319E-03
RMM:   5    -0.678141774647E+03    0.21006E-07   -0.17887E-06 12909   0.384E-03
  35 F= -.67814177E+03 E0= -.67814177E+03  d E =-.142483E-03
 BRION: g(F)=  0.197E-04 g(S)=  0.222E-07
 BRIONS problems: POTIM should be increased
 retain N=  1 mean eig=34.78
 eig:  34.785
 bond charge predicted
       N       E                     dE             d eps       ncg     rms          rms(c)
DAV:   1    -0.678141797379E+03   -0.22711E-04   -0.48953E-02 22680   0.486E-01    0.353E-02
RMM:   2    -0.678141883766E+03   -0.86387E-04   -0.10237E-03 22542   0.793E-02    0.168E-02
RMM:   3    -0.678141875044E+03    0.87219E-05   -0.61300E-05 26377   0.254E-02    0.111E-02
RMM:   4    -0.678141873417E+03    0.16269E-05   -0.14615E-05 26341   0.633E-03    0.382E-03
RMM:   5    -0.678141873348E+03    0.69718E-07   -0.21449E-06 13377   0.373E-03
  36 F= -.67814187E+03 E0= -.67814187E+03  d E =-.987004E-04
 BRION: g(F)=  0.154E-04 g(S)=  0.528E-07
 BRIONS problems: POTIM should be increased
 retain N=  1 mean eig=34.40
 eig:  34.405
 bond charge predicted
       N       E                     dE             d eps       ncg     rms          rms(c)
DAV:   1    -0.678141895915E+03   -0.22498E-04   -0.15449E-02 23472   0.275E-01    0.194E-02
RMM:   2    -0.678141924374E+03   -0.28459E-04   -0.33528E-04 22511   0.457E-02    0.910E-03
RMM:   3    -0.678141921584E+03    0.27901E-05   -0.20181E-05 24958   0.146E-02    0.627E-03
RMM:   4    -0.678141921028E+03    0.55593E-06   -0.45222E-06 18788   0.385E-03
  37 F= -.67814192E+03 E0= -.67814192E+03  d E =-.476804E-04
 BRION: g(F)=  0.128E-04 g(S)=  0.446E-07 retain N=  1 mean eig= 1.67
 eig:   1.675
 bond charge predicted
       N       E                     dE             d eps       ncg     rms          rms(c)
DAV:   1    -0.678141932866E+03   -0.11282E-04   -0.17541E-02 23184   0.294E-01    0.206E-02
RMM:   2    -0.678141964815E+03   -0.31948E-04   -0.37770E-04 22421   0.486E-02    0.967E-03
RMM:   3    -0.678141961785E+03    0.30294E-05   -0.22691E-05 24718   0.159E-02    0.702E-03
RMM:   4    -0.678141961197E+03    0.58822E-06   -0.52474E-06 20028   0.400E-03
  38 F= -.67814196E+03 E0= -.67814196E+03  d E =-.401690E-04
 BRION: g(F)=  0.101E-04 g(S)=  0.868E-07
 BRIONS problems: POTIM should be increased
 retain N=  1 mean eig=19.80
 eig:  19.800
 bond charge predicted
       N       E                     dE             d eps       ncg     rms          rms(c)
DAV:   1    -0.678141961334E+03    0.45138E-06   -0.19597E-02 25416   0.310E-01    0.205E-02
RMM:   2    -0.678141996318E+03   -0.34984E-04   -0.40901E-04 22387   0.500E-02    0.102E-02
RMM:   3    -0.678141992918E+03    0.34006E-05   -0.23078E-05 24373   0.154E-02    0.677E-03
RMM:   4    -0.678141992110E+03    0.80780E-06   -0.74236E-06 21529   0.466E-03
  39 F= -.67814199E+03 E0= -.67814199E+03  d E =-.309129E-04
 BRION: g(F)=  0.814E-05 g(S)=  0.235E-06
 BRIONS problems: POTIM should be increased
 retain N=  1 mean eig=10.48
 eig:  10.484
 bond charge predicted
       N       E                     dE             d eps       ncg     rms          rms(c)
DAV:   1    -0.678142000751E+03   -0.78335E-05   -0.25862E-03 28512   0.112E-01    0.702E-03
RMM:   2    -0.678142005438E+03   -0.46864E-05   -0.54441E-05 22675   0.177E-02    0.367E-03
RMM:   3    -0.678142004776E+03    0.66125E-06   -0.21662E-06 11811   0.530E-03    0.279E-03
RMM:   4    -0.678142004652E+03    0.12456E-06   -0.91633E-07 10991   0.255E-03
  40 F= -.67814200E+03 E0= -.67814200E+03  d E =-.125419E-04
 BRION: g(F)=  0.738E-05 g(S)=  0.263E-06 retain N=  1 mean eig= 4.11
 eig:   4.113
 bond charge predicted
       N       E                     dE             d eps       ncg     rms          rms(c)
DAV:   1    -0.678142006215E+03   -0.14390E-05   -0.15380E-02 25920   0.272E-01    0.169E-02
RMM:   2    -0.678142033890E+03   -0.27674E-04   -0.31215E-04 22418   0.430E-02    0.864E-03
RMM:   3    -0.678142031235E+03    0.26543E-05   -0.15475E-05 22697   0.129E-02    0.598E-03
RMM:   4    -0.678142030485E+03    0.75014E-06   -0.51461E-06 19079   0.403E-03
  41 F= -.67814203E+03 E0= -.67814203E+03  d E =-.258331E-04
 BRION: g(F)=  0.521E-05 g(S)=  0.217E-06
 BRIONS problems: POTIM should be increased
 retain N=  1 mean eig=10.56
 eig:  10.565
 reached required accuracy - stopping structural energy minimisation
