<?xml version="1.0" encoding="ISO-8859-1"?>
<modeling>
 <generator>
  <i name="program" type="string">vasp </i>
  <i name="version" type="string">5.4.4.18Apr17-6-g9f103f2a35  </i>
  <i name="subversion" type="string">(build Mar 05 2020 17:21:05) complex            parallel </i>
  <i name="platform" type="string">Linux justhpc1_p2018-05-16 </i>
  <i name="date" type="string">2024 04 10 </i>
  <i name="time" type="string">20:02:02 </i>
 </generator>
 <incar>
  <i type="string" name="SYSTEM"> Li(NbTa)O_3</i>
  <i type="int" name="ISTART">     0</i>
  <i type="string" name="PREC">accurate</i>
  <i type="string" name="ALGO">  Fast</i>
  <i name="AMIX">      0.40000000</i>
  <i name="AMIN">      0.10000000</i>
  <i type="int" name="ICHARG">     2</i>
  <i type="int" name="INIWAV">     1</i>
  <i type="int" name="NELM">  1000</i>
  <i type="int" name="NELMIN">     4</i>
  <i type="int" name="IBRION">     1</i>
  <i name="EDIFF">      0.00000100</i>
  <i name="EDIFFG">     -0.00500000</i>
  <i type="int" name="NSW">   200</i>
  <i type="int" name="ISIF">     4</i>
  <i name="ENCUT">    475.00000000</i>
  <i name="POTIM">      0.15000000</i>
  <i type="string" name="LREAL">    A</i>
  <i type="int" name="ISMEAR">    -5</i>
  <i name="SIGMA">      0.05000000</i>
  <i type="int" name="NWRITE">     0</i>
  <i type="logical" name="LWAVE"> F  </i>
  <i type="logical" name="LCHARG"> F  </i>
  <i type="logical" name="LVTOT"> F  </i>
  <i type="logical" name="LVHAR"> F  </i>
  <i type="logical" name="LELF"> F  </i>
  <v type="int" name="KPOINT_BSE">    -1     0     0     0</v>
  <i type="int" name="NELM">  1000</i>
  <i type="string" name="GGA"> PS</i>
 </incar>
 <structure name="primitive_cell" >
  <crystal>
   <varray name="basis" >
    <v>       5.29928672      -3.05790289       9.48814281 </v>
    <v>       0.00254431       6.11743860       9.48725523 </v>
    <v>      -5.29660447      -3.05929221       9.48620438 </v>
   </varray>
   <i name="volume">    922.42417529 </i>
   <varray name="rec_basis" >
    <v>       0.09437693      -0.05450245       0.03511819 </v>
    <v>      -0.00002072       0.10897921       0.03513413 </v>
    <v>      -0.09437549      -0.05447770       0.03515285 </v>
   </varray>
  </crystal>
  <varray name="positions" >
   <v>       0.13834752       0.13936271       0.13984335 </v>
   <v>       0.30515946       0.11079423      -0.06809337 </v>
   <v>       0.11018018      -0.06879723       0.30647725 </v>
   <v>      -0.06905013       0.30643726       0.10970186 </v>
   <v>       0.05623360       0.18120304       0.36059596 </v>
   <v>       0.18067803       0.36043515       0.05635112 </v>
   <v>       0.36055215       0.05618073       0.18135900 </v>
   <v>       0.24862253       0.24992729       0.24762435 </v>
   <v>      -0.00061676       0.00003493       0.49763958 </v>
   <v>      -0.00250010       0.49794372       0.00086033 </v>
   <v>       0.49988249      -0.00261528       0.00090131 </v>
   <v>      -0.19337261       0.10979363       0.43135599 </v>
   <v>       0.43096027      -0.19329050       0.10983535 </v>
   <v>       0.11066152       0.43074915      -0.19460356 </v>
   <v>       0.25168038       0.24891337      -0.25040483 </v>
   <v>      -0.25269028       0.24776208       0.24918815 </v>
   <v>       0.24806756      -0.25193469       0.24849505 </v>
   <v>      -0.13900432       0.05588109       0.18065345 </v>
   <v>       0.18040413      -0.13909628       0.05629587 </v>
   <v>       0.05540035       0.18155956      -0.13965962 </v>
   <v>      -0.10895576       0.39188824      -0.11006009 </v>
   <v>       0.39066873      -0.10877522      -0.10982588 </v>
   <v>      -0.11047756      -0.10980384       0.39154151 </v>
   <v>       0.38998511      -0.10977024       0.39046082 </v>
   <v>      -0.10918121       0.39199278       0.39127564 </v>
   <v>       0.39173469       0.39088444      -0.10940012 </v>
   <v>      -0.00040763       0.00150112      -0.00324828 </v>
   <v>      -0.13992542      -0.44365171       0.18046819 </v>
   <v>       0.18050111      -0.13926661      -0.44374241 </v>
   <v>      -0.44374507       0.18016866      -0.13917796 </v>
   <v>       0.10933811       0.43208088       0.30572184 </v>
   <v>       0.30616879       0.11038237       0.43144631 </v>
   <v>       0.43164615       0.30579781       0.11007695 </v>
   <v>      -0.06861027      -0.19460936      -0.38915746 </v>
   <v>      -0.19415364      -0.38916703      -0.06990609 </v>
   <v>      -0.38975637      -0.06865989      -0.19428568 </v>
   <v>       0.35943918       0.05639020      -0.31796545 </v>
   <v>      -0.31905839       0.36072792       0.05606070 </v>
   <v>       0.05604537      -0.31923144       0.36081137 </v>
   <v>      -0.38984081       0.43137998       0.30635721 </v>
   <v>       0.43176800       0.30520898      -0.38895871 </v>
   <v>       0.30631393      -0.39036548       0.43142758 </v>
   <v>      -0.13939540       0.05601788      -0.31945939 </v>
   <v>       0.05642617      -0.32016891      -0.13927708 </v>
   <v>      -0.31892800      -0.13953226       0.05575260 </v>
   <v>      -0.44445923      -0.31816567       0.36007734 </v>
   <v>      -0.31943661       0.36084158      -0.44373941 </v>
   <v>       0.36082901      -0.44378709      -0.31960064 </v>
   <v>      -0.35955392       0.13979598      -0.36104116 </v>
   <v>      -0.36012932      -0.35949036       0.14005521 </v>
   <v>       0.14027342      -0.36143308      -0.36057710 </v>
   <v>      -0.44331040       0.18089021       0.36049958 </v>
   <v>       0.36061507      -0.44381848       0.18081868 </v>
   <v>       0.18159346       0.36067916      -0.44443328 </v>
   <v>      -0.06871227       0.30623948      -0.39020555 </v>
   <v>       0.30592914      -0.39026941      -0.06842438 </v>
   <v>      -0.38932248      -0.06834703       0.30547765 </v>
   <v>       0.14028321       0.14032414      -0.35907876 </v>
   <v>      -0.36031050       0.14081636       0.13851063 </v>
   <v>       0.14005761      -0.36085585       0.13990376 </v>
   <v>      -0.19376884       0.10929440      -0.06852055 </v>
   <v>       0.10974163      -0.06923313      -0.19337096 </v>
   <v>      -0.06863886      -0.19507418       0.11095065 </v>
   <v>      -0.31902069      -0.14027494      -0.44344507 </v>
   <v>      -0.13940492      -0.44418373      -0.31949283 </v>
   <v>      -0.44443032      -0.31917978      -0.13909459 </v>
   <v>      -0.19496216      -0.38925698       0.43111591 </v>
   <v>       0.43105925      -0.19361902      -0.39007314 </v>
   <v>      -0.38991387       0.43101265      -0.19363503 </v>
   <v>       0.24752603      -0.25254119      -0.25065840 </v>
   <v>      -0.25165012       0.24827406      -0.25167126 </v>
   <v>       0.49985523      -0.49870242       0.49655071 </v>
   <v>      -0.24902685      -0.25057531       0.24984287 </v>
   <v>       0.49682629      -0.00232810      -0.49984566 </v>
   <v>       0.00052440       0.49715140      -0.49911933 </v>
   <v>       0.49954620      -0.49996032      -0.00214243 </v>
   <v>      -0.25059786      -0.24904122      -0.25197652 </v>
   <v>       0.39146324       0.38999630       0.39085144 </v>
   <v>      -0.10896892      -0.10923924      -0.10865368 </v>
   <v>      -0.35904566      -0.35991442      -0.35855301 </v>
  </varray>
 </structure>
 <varray name="primitive_index" >
  <v type="int" >        1 </v>
  <v type="int" >       38 </v>
  <v type="int" >       43 </v>
  <v type="int" >       54 </v>
  <v type="int" >       27 </v>
  <v type="int" >       29 </v>
  <v type="int" >       28 </v>
  <v type="int" >       75 </v>
  <v type="int" >       18 </v>
  <v type="int" >       20 </v>
  <v type="int" >       22 </v>
  <v type="int" >       56 </v>
  <v type="int" >       42 </v>
  <v type="int" >       37 </v>
  <v type="int" >       19 </v>
  <v type="int" >       78 </v>
  <v type="int" >       76 </v>
  <v type="int" >       52 </v>
  <v type="int" >       41 </v>
  <v type="int" >       33 </v>
  <v type="int" >       12 </v>
  <v type="int" >        8 </v>
  <v type="int" >       14 </v>
  <v type="int" >        6 </v>
  <v type="int" >       10 </v>
  <v type="int" >        4 </v>
  <v type="int" >       17 </v>
  <v type="int" >       64 </v>
  <v type="int" >       47 </v>
  <v type="int" >       57 </v>
  <v type="int" >       31 </v>
  <v type="int" >       32 </v>
  <v type="int" >       30 </v>
  <v type="int" >       72 </v>
  <v type="int" >       74 </v>
  <v type="int" >       73 </v>
  <v type="int" >       34 </v>
  <v type="int" >       53 </v>
  <v type="int" >       39 </v>
  <v type="int" >       55 </v>
  <v type="int" >       36 </v>
  <v type="int" >       44 </v>
  <v type="int" >       58 </v>
  <v type="int" >       45 </v>
  <v type="int" >       65 </v>
  <v type="int" >       63 </v>
  <v type="int" >       59 </v>
  <v type="int" >       46 </v>
  <v type="int" >       11 </v>
  <v type="int" >       13 </v>
  <v type="int" >        7 </v>
  <v type="int" >       51 </v>
  <v type="int" >       40 </v>
  <v type="int" >       35 </v>
  <v type="int" >       60 </v>
  <v type="int" >       50 </v>
  <v type="int" >       67 </v>
  <v type="int" >        3 </v>
  <v type="int" >        9 </v>
  <v type="int" >        5 </v>
  <v type="int" >       62 </v>
  <v type="int" >       49 </v>
  <v type="int" >       66 </v>
  <v type="int" >       71 </v>
  <v type="int" >       70 </v>
  <v type="int" >       69 </v>
  <v type="int" >       68 </v>
  <v type="int" >       48 </v>
  <v type="int" >       61 </v>
  <v type="int" >       77 </v>
  <v type="int" >       80 </v>
  <v type="int" >       25 </v>
  <v type="int" >       24 </v>
  <v type="int" >       79 </v>
  <v type="int" >       21 </v>
  <v type="int" >       23 </v>
  <v type="int" >       26 </v>
  <v type="int" >        2 </v>
  <v type="int" >       16 </v>
  <v type="int" >       15 </v>
 </varray>
 <kpoints>
  <generation param="Gamma">
   <v type="int" name="divisions">       4        4        4 </v>
   <v name="usershift">      0.00000000       0.00000000       0.00000000 </v>
   <v name="genvec1">      0.25000000       0.00000000       0.00000000 </v>
   <v name="genvec2">      0.00000000       0.25000000       0.00000000 </v>
   <v name="genvec3">      0.00000000       0.00000000       0.25000000 </v>
   <v name="shift">      0.00000000       0.00000000       0.00000000 </v>
  </generation>
  <varray name="kpointlist" >
   <v>       0.00000000       0.00000000       0.00000000 </v>
   <v>       0.25000000       0.00000000       0.00000000 </v>
   <v>       0.50000000       0.00000000       0.00000000 </v>
   <v>       0.00000000       0.25000000       0.00000000 </v>
   <v>       0.25000000       0.25000000       0.00000000 </v>
   <v>       0.50000000       0.25000000      -0.00000000 </v>
   <v>      -0.25000000       0.25000000      -0.00000000 </v>
   <v>       0.00000000       0.50000000       0.00000000 </v>
   <v>       0.25000000       0.50000000      -0.00000000 </v>
   <v>       0.50000000       0.50000000       0.00000000 </v>
   <v>       0.00000000       0.00000000       0.25000000 </v>
   <v>       0.25000000      -0.00000000       0.25000000 </v>
   <v>       0.50000000      -0.00000000       0.25000000 </v>
   <v>      -0.25000000       0.00000000       0.25000000 </v>
   <v>       0.00000000       0.25000000       0.25000000 </v>
   <v>       0.25000000       0.25000000       0.25000000 </v>
   <v>       0.50000000       0.25000000       0.25000000 </v>
   <v>      -0.25000000       0.25000000       0.25000000 </v>
   <v>       0.00000000       0.50000000       0.25000000 </v>
   <v>       0.25000000       0.50000000       0.25000000 </v>
   <v>       0.50000000       0.50000000       0.25000000 </v>
   <v>      -0.25000000       0.50000000       0.25000000 </v>
   <v>      -0.00000000      -0.25000000       0.25000000 </v>
   <v>       0.25000000      -0.25000000       0.25000000 </v>
   <v>       0.50000000      -0.25000000       0.25000000 </v>
   <v>      -0.25000000      -0.25000000       0.25000000 </v>
   <v>       0.00000000       0.00000000       0.50000000 </v>
   <v>       0.25000000      -0.00000000       0.50000000 </v>
   <v>       0.50000000      -0.00000000       0.50000000 </v>
   <v>       0.00000000       0.25000000       0.50000000 </v>
   <v>       0.25000000       0.25000000       0.50000000 </v>
   <v>       0.50000000       0.25000000       0.50000000 </v>
   <v>      -0.25000000       0.25000000       0.50000000 </v>
   <v>       0.00000000       0.50000000       0.50000000 </v>
   <v>       0.25000000       0.50000000       0.50000000 </v>
   <v>       0.50000000       0.50000000       0.50000000 </v>
  </varray>
  <varray name="weights" >
   <v>       0.01562500 </v>
   <v>       0.03125000 </v>
   <v>       0.01562500 </v>
   <v>       0.03125000 </v>
   <v>       0.03125000 </v>
   <v>       0.03125000 </v>
   <v>       0.03125000 </v>
   <v>       0.01562500 </v>
   <v>       0.03125000 </v>
   <v>       0.01562500 </v>
   <v>       0.03125000 </v>
   <v>       0.03125000 </v>
   <v>       0.03125000 </v>
   <v>       0.03125000 </v>
   <v>       0.03125000 </v>
   <v>       0.03125000 </v>
   <v>       0.03125000 </v>
   <v>       0.03125000 </v>
   <v>       0.03125000 </v>
   <v>       0.03125000 </v>
   <v>       0.03125000 </v>
   <v>       0.03125000 </v>
   <v>       0.03125000 </v>
   <v>       0.03125000 </v>
   <v>       0.03125000 </v>
   <v>       0.03125000 </v>
   <v>       0.01562500 </v>
   <v>       0.03125000 </v>
   <v>       0.01562500 </v>
   <v>       0.03125000 </v>
   <v>       0.03125000 </v>
   <v>       0.03125000 </v>
   <v>       0.03125000 </v>
   <v>       0.01562500 </v>
   <v>       0.03125000 </v>
   <v>       0.01562500 </v>
  </varray>
  <varray name="tetrahedronlist"  type="int" >
   <v type="int" >        2        1        4        5       16 </v>
   <v type="int" >        2        1        2        5       16 </v>
   <v type="int" >        2        1        2       12       16 </v>
   <v type="int" >        2        1        4       15       16 </v>
   <v type="int" >        2        1       11       15       16 </v>
   <v type="int" >        2        1       11       12       16 </v>
   <v type="int" >        2        2        5        6       17 </v>
   <v type="int" >        2        2        3        6       17 </v>
   <v type="int" >        2        2        3       13       17 </v>
   <v type="int" >        2        2        5       16       17 </v>
   <v type="int" >        2        2       12       16       17 </v>
   <v type="int" >        2        2       12       13       17 </v>
   <v type="int" >        2        3        6        7       18 </v>
   <v type="int" >        2        2        3        7       18 </v>
   <v type="int" >        2        2        3       14       18 </v>
   <v type="int" >        2        3        6       17       18 </v>
   <v type="int" >        2        3       13       17       18 </v>
   <v type="int" >        2        3       13       14       18 </v>
   <v type="int" >        2        2        4        7       15 </v>
   <v type="int" >        2        1        2        4       15 </v>
   <v type="int" >        2        1        2       11       15 </v>
   <v type="int" >        2        2        7       15       18 </v>
   <v type="int" >        2        2       14       15       18 </v>
   <v type="int" >        2        2       11       14       15 </v>
   <v type="int" >        2        4        8        9       20 </v>
   <v type="int" >        2        4        5        9       20 </v>
   <v type="int" >        2        4        5       16       20 </v>
   <v type="int" >        2        4        8       19       20 </v>
   <v type="int" >        2        4       15       19       20 </v>
   <v type="int" >        2        4       15       16       20 </v>
   <v type="int" >        2        5        9       10       21 </v>
   <v type="int" >        2        5        6       10       21 </v>
   <v type="int" >        2        5        6       17       21 </v>
   <v type="int" >        2        5        9       20       21 </v>
   <v type="int" >        2        5       16       20       21 </v>
   <v type="int" >        2        5       16       17       21 </v>
   <v type="int" >        2        6        9       10       22 </v>
   <v type="int" >        2        6        7        9       22 </v>
   <v type="int" >        2        6        7       18       22 </v>
   <v type="int" >        2        6       10       21       22 </v>
   <v type="int" >        2        6       17       21       22 </v>
   <v type="int" >        2        6       17       18       22 </v>
   <v type="int" >        2        7        8        9       19 </v>
   <v type="int" >        2        4        7        8       19 </v>
   <v type="int" >        2        4        7       15       19 </v>
   <v type="int" >        2        7        9       19       22 </v>
   <v type="int" >        2        7       18       19       22 </v>
   <v type="int" >        2        7       15       18       19 </v>
   <v type="int" >        2        4        7        8       24 </v>
   <v type="int" >        2        7        8        9       24 </v>
   <v type="int" >        2        8        9       20       24 </v>
   <v type="int" >        2        4        8       23       24 </v>
   <v type="int" >        2        8       19       23       24 </v>
   <v type="int" >        2        8       19       20       24 </v>
   <v type="int" >        2        6        7        9       25 </v>
   <v type="int" >        2        6        9       10       25 </v>
   <v type="int" >        2        9       10       21       25 </v>
   <v type="int" >        2        7        9       24       25 </v>
   <v type="int" >        2        9       20       24       25 </v>
   <v type="int" >        2        9       20       21       25 </v>
   <v type="int" >        2        5        6       10       26 </v>
   <v type="int" >        2        5        9       10       26 </v>
   <v type="int" >        2        9       10       22       26 </v>
   <v type="int" >        2        6       10       25       26 </v>
   <v type="int" >        2       10       21       25       26 </v>
   <v type="int" >        2       10       21       22       26 </v>
   <v type="int" >        2        4        5        9       23 </v>
   <v type="int" >        2        4        8        9       23 </v>
   <v type="int" >        2        8        9       19       23 </v>
   <v type="int" >        2        5        9       23       26 </v>
   <v type="int" >        2        9       22       23       26 </v>
   <v type="int" >        2        9       19       22       23 </v>
   <v type="int" >        2        1        2        4       12 </v>
   <v type="int" >        2        2        4        7       12 </v>
   <v type="int" >        2        4        7       12       24 </v>
   <v type="int" >        2        1        4       11       12 </v>
   <v type="int" >        2        4       11       12       23 </v>
   <v type="int" >        2        4       12       23       24 </v>
   <v type="int" >        2        2        3        7       13 </v>
   <v type="int" >        2        3        6        7       13 </v>
   <v type="int" >        2        6        7       13       25 </v>
   <v type="int" >        2        2        7       12       13 </v>
   <v type="int" >        2        7       12       13       24 </v>
   <v type="int" >        2        7       13       24       25 </v>
   <v type="int" >        2        2        3        6       14 </v>
   <v type="int" >        2        2        5        6       14 </v>
   <v type="int" >        2        5        6       14       26 </v>
   <v type="int" >        2        3        6       13       14 </v>
   <v type="int" >        2        6       13       14       25 </v>
   <v type="int" >        2        6       14       25       26 </v>
   <v type="int" >        2        1        2        5       11 </v>
   <v type="int" >        2        1        4        5       11 </v>
   <v type="int" >        2        4        5       11       23 </v>
   <v type="int" >        2        2        5       11       14 </v>
   <v type="int" >        2        5       11       14       26 </v>
   <v type="int" >        2        5       11       23       26 </v>
   <v type="int" >        2       11       15       16       31 </v>
   <v type="int" >        2       11       12       16       31 </v>
   <v type="int" >        2       11       12       28       31 </v>
   <v type="int" >        2       11       15       30       31 </v>
   <v type="int" >        2       11       27       30       31 </v>
   <v type="int" >        2       11       27       28       31 </v>
   <v type="int" >        2       12       16       17       32 </v>
   <v type="int" >        2       12       13       17       32 </v>
   <v type="int" >        2       12       13       29       32 </v>
   <v type="int" >        2       12       16       31       32 </v>
   <v type="int" >        2       12       28       31       32 </v>
   <v type="int" >        2       12       28       29       32 </v>
   <v type="int" >        2       13       17       18       33 </v>
   <v type="int" >        2       13       14       18       33 </v>
   <v type="int" >        2       13       14       28       33 </v>
   <v type="int" >        2       13       17       32       33 </v>
   <v type="int" >        2       13       29       32       33 </v>
   <v type="int" >        2       13       28       29       33 </v>
   <v type="int" >        2       14       15       18       30 </v>
   <v type="int" >        2       11       14       15       30 </v>
   <v type="int" >        2       11       14       27       30 </v>
   <v type="int" >        2       14       18       30       33 </v>
   <v type="int" >        2       14       28       30       33 </v>
   <v type="int" >        2       14       27       28       30 </v>
   <v type="int" >        2       15       19       20       35 </v>
   <v type="int" >        2       15       16       20       35 </v>
   <v type="int" >        2       15       16       31       35 </v>
   <v type="int" >        2       15       19       34       35 </v>
   <v type="int" >        2       15       30       34       35 </v>
   <v type="int" >        2       15       30       31       35 </v>
   <v type="int" >        2       16       20       21       36 </v>
   <v type="int" >        2       16       17       21       36 </v>
   <v type="int" >        2       16       17       32       36 </v>
   <v type="int" >        2       16       20       35       36 </v>
   <v type="int" >        2       16       31       35       36 </v>
   <v type="int" >        2       16       31       32       36 </v>
   <v type="int" >        2       17       21       22       35 </v>
   <v type="int" >        2       17       18       22       35 </v>
   <v type="int" >        2       17       18       33       35 </v>
   <v type="int" >        2       17       21       35       36 </v>
   <v type="int" >        2       17       32       35       36 </v>
   <v type="int" >        2       17       32       33       35 </v>
   <v type="int" >        2       18       19       22       34 </v>
   <v type="int" >        2       15       18       19       34 </v>
   <v type="int" >        2       15       18       30       34 </v>
   <v type="int" >        2       18       22       34       35 </v>
   <v type="int" >        2       18       33       34       35 </v>
   <v type="int" >        2       18       30       33       34 </v>
   <v type="int" >        2       19       23       24       33 </v>
   <v type="int" >        2       19       20       24       33 </v>
   <v type="int" >        2       19       20       33       35 </v>
   <v type="int" >        2       19       23       30       33 </v>
   <v type="int" >        2       19       30       33       34 </v>
   <v type="int" >        2       19       33       34       35 </v>
   <v type="int" >        2       20       24       25       32 </v>
   <v type="int" >        2       20       21       25       32 </v>
   <v type="int" >        2       20       21       32       36 </v>
   <v type="int" >        2       20       24       32       33 </v>
   <v type="int" >        2       20       32       33       35 </v>
   <v type="int" >        2       20       32       35       36 </v>
   <v type="int" >        2       21       25       26       31 </v>
   <v type="int" >        2       21       22       26       31 </v>
   <v type="int" >        2       21       22       31       35 </v>
   <v type="int" >        2       21       25       31       32 </v>
   <v type="int" >        2       21       31       32       36 </v>
   <v type="int" >        2       21       31       35       36 </v>
   <v type="int" >        2       22       23       26       30 </v>
   <v type="int" >        2       19       22       23       30 </v>
   <v type="int" >        2       19       22       30       34 </v>
   <v type="int" >        2       22       26       30       31 </v>
   <v type="int" >        2       22       30       31       35 </v>
   <v type="int" >        2       22       30       34       35 </v>
   <v type="int" >        2       11       12       23       28 </v>
   <v type="int" >        2       12       23       24       28 </v>
   <v type="int" >        2       23       24       28       33 </v>
   <v type="int" >        2       11       23       27       28 </v>
   <v type="int" >        2       23       27       28       30 </v>
   <v type="int" >        2       23       28       30       33 </v>
   <v type="int" >        2       12       13       24       29 </v>
   <v type="int" >        2       13       24       25       29 </v>
   <v type="int" >        2       24       25       29       32 </v>
   <v type="int" >        2       12       24       28       29 </v>
   <v type="int" >        2       24       28       29       33 </v>
   <v type="int" >        2       24       29       32       33 </v>
   <v type="int" >        2       13       14       25       28 </v>
   <v type="int" >        2       14       25       26       28 </v>
   <v type="int" >        2       25       26       28       31 </v>
   <v type="int" >        2       13       25       28       29 </v>
   <v type="int" >        2       25       28       29       32 </v>
   <v type="int" >        2       25       28       31       32 </v>
   <v type="int" >        2       11       14       26       27 </v>
   <v type="int" >        2       11       23       26       27 </v>
   <v type="int" >        2       23       26       27       30 </v>
   <v type="int" >        2       14       26       27       28 </v>
   <v type="int" >        2       26       27       28       31 </v>
   <v type="int" >        2       26       27       30       31 </v>
  </varray>
  <i name="volumeweight">      0.00260417 </i>
 </kpoints>
 <parameters>
  <separator name="general" >
   <i type="string" name="SYSTEM">Li(NbTa)O_3</i>
   <i type="logical" name="LCOMPAT"> F  </i>
  </separator>
  <separator name="electronic" >
   <i type="string" name="PREC">accura</i>
   <i name="ENMAX">    475.00000000</i>
   <i name="ENAUG">    605.39200000</i>
   <i name="EDIFF">      0.00000100</i>
   <i type="int" name="IALGO">    68</i>
   <i type="int" name="IWAVPR">    11</i>
   <i type="int" name="NBANDS">   288</i>
   <i name="NELECT">    464.00000000</i>
   <i type="int" name="TURBO">     0</i>
   <i type="int" name="IRESTART">     0</i>
   <i type="int" name="NREBOOT">     0</i>
   <i type="int" name="NMIN">     0</i>
   <i name="EREF">      0.00000000</i>
   <separator name="electronic smearing" >
    <i type="int" name="ISMEAR">    -5</i>
    <i name="SIGMA">      0.05000000</i>
    <i name="KSPACING">      0.50000000</i>
    <i type="logical" name="KGAMMA"> T  </i>
   </separator>
   <separator name="electronic projectors" >
    <i type="logical" name="LREAL"> T  </i>
    <v name="ROPT">     -0.00025000     -0.00025000     -0.00025000     -0.00025000</v>
    <i type="int" name="LMAXPAW">  -100</i>
    <i type="int" name="LMAXMIX">     2</i>
    <i type="logical" name="NLSPLINE"> F  </i>
   </separator>
   <separator name="electronic startup" >
    <i type="int" name="ISTART">     0</i>
    <i type="int" name="ICHARG">     2</i>
    <i type="int" name="INIWAV">     1</i>
   </separator>
   <separator name="electronic spin" >
    <i type="int" name="ISPIN">     1</i>
    <i type="logical" name="LNONCOLLINEAR"> F  </i>
    <v name="MAGMOM">      1.00000000      1.00000000      1.00000000      1.00000000      1.00000000      1.00000000      1.00000000      1.00000000      1.00000000      1.00000000      1.00000000      1.00000000      1.00000000      1.00000000      1.00000000      1.00000000      1.00000000      1.00000000      1.00000000      1.00000000
      1.00000000      1.00000000      1.00000000      1.00000000      1.00000000      1.00000000      1.00000000      1.00000000      1.00000000      1.00000000      1.00000000      1.00000000      1.00000000      1.00000000      1.00000000      1.00000000      1.00000000      1.00000000      1.00000000      1.00000000
      1.00000000      1.00000000      1.00000000      1.00000000      1.00000000      1.00000000      1.00000000      1.00000000      1.00000000      1.00000000      1.00000000      1.00000000      1.00000000      1.00000000      1.00000000      1.00000000      1.00000000      1.00000000      1.00000000      1.00000000
      1.00000000      1.00000000      1.00000000      1.00000000      1.00000000      1.00000000      1.00000000      1.00000000      1.00000000      1.00000000      1.00000000      1.00000000      1.00000000      1.00000000      1.00000000      1.00000000      1.00000000      1.00000000      1.00000000      1.00000000
</v>
    <i name="NUPDOWN">     -1.00000000</i>
    <i type="logical" name="LSORBIT"> F  </i>
    <v name="SAXIS">      0.00000000      0.00000000      1.00000000</v>
    <i type="logical" name="LSPIRAL"> F  </i>
    <v name="QSPIRAL">      0.00000000      0.00000000      0.00000000</v>
    <i type="logical" name="LZEROZ"> F  </i>
   </separator>
   <separator name="electronic exchange-correlation" >
    <i type="logical" name="LASPH"> F  </i>
    <i type="logical" name="LMETAGGA"> F  </i>
   </separator>
   <separator name="electronic convergence" >
    <i type="int" name="NELM">  1000</i>
    <i type="int" name="NELMDL">    -5</i>
    <i type="int" name="NELMIN">     4</i>
    <i name="ENINI">    475.00000000</i>
    <separator name="electronic convergence detail" >
     <i type="logical" name="LDIAG"> T  </i>
     <i type="logical" name="LSUBROT"> F  </i>
     <i name="WEIMIN">      0.00100000</i>
     <i name="EBREAK">      0.00000000</i>
     <i name="DEPER">      0.30000000</i>
     <i type="int" name="NRMM">     4</i>
     <i name="TIME">      0.40000000</i>
    </separator>
   </separator>
   <separator name="electronic mixer" >
    <i name="AMIX">      0.40000000</i>
    <i name="BMIX">      1.00000000</i>
    <i name="AMIN">      0.10000000</i>
    <i name="AMIX_MAG">      1.60000000</i>
    <i name="BMIX_MAG">      1.00000000</i>
    <separator name="electronic mixer details" >
     <i type="int" name="IMIX">     4</i>
     <i type="logical" name="MIXFIRST"> F  </i>
     <i type="int" name="MAXMIX">   -45</i>
     <i name="WC">    100.00000000</i>
     <i type="int" name="INIMIX">     1</i>
     <i type="int" name="MIXPRE">     1</i>
     <i type="int" name="MREMOVE">     5</i>
    </separator>
   </separator>
   <separator name="electronic dipolcorrection" >
    <i type="logical" name="LDIPOL"> F  </i>
    <i type="logical" name="LMONO"> F  </i>
    <i type="int" name="IDIPOL">     0</i>
    <i name="EPSILON">      1.00000000</i>
    <v name="DIPOL">   -100.00000000   -100.00000000   -100.00000000</v>
    <i name="EFIELD">      0.00000000</i>
   </separator>
  </separator>
  <separator name="grids" >
   <i type="int" name="NGX">    80</i>
   <i type="int" name="NGY">    80</i>
   <i type="int" name="NGZ">    80</i>
   <i type="int" name="NGXF">   160</i>
   <i type="int" name="NGYF">   160</i>
   <i type="int" name="NGZF">   160</i>
   <i type="logical" name="ADDGRID"> F  </i>
  </separator>
  <separator name="ionic" >
   <i type="int" name="NSW">   200</i>
   <i type="int" name="IBRION">     1</i>
   <i type="int" name="MDALGO">     0</i>
   <i type="int" name="ISIF">     4</i>
   <i name="PSTRESS">      0.00000000</i>
   <i name="EDIFFG">     -0.00500000</i>
   <i type="int" name="NFREE">     0</i>
   <i name="POTIM">      0.15000000</i>
   <i name="SMASS">     -3.00000000</i>
   <i name="SCALEE">      1.00000000</i>
  </separator>
  <separator name="ionic md" >
   <i name="TEBEG">      0.00010000</i>
   <i name="TEEND">      0.00010000</i>
   <i type="int" name="NBLOCK">     1</i>
   <i type="int" name="KBLOCK">   200</i>
   <i type="int" name="NPACO">   256</i>
   <i name="APACO">     16.00000000</i>
  </separator>
  <separator name="symmetry" >
   <i type="int" name="ISYM">     2</i>
   <i name="SYMPREC">      0.00001000</i>
  </separator>
  <separator name="dos" >
   <i type="int" name="LORBIT">     0</i>
   <v name="RWIGS">     -1.00000000     -1.00000000     -1.00000000     -1.00000000</v>
   <i type="int" name="NEDOS">   301</i>
   <i name="EMIN">     10.00000000</i>
   <i name="EMAX">    -10.00000000</i>
   <i name="EFERMI">      0.00000000</i>
  </separator>
  <separator name="writing" >
   <i type="int" name="NWRITE">     0</i>
   <i type="logical" name="LWAVE"> F  </i>
   <i type="logical" name="LDOWNSAMPLE"> F  </i>
   <i type="logical" name="LCHARG"> F  </i>
   <i type="logical" name="LPARD"> F  </i>
   <i type="logical" name="LVTOT"> F  </i>
   <i type="logical" name="LVHAR"> F  </i>
   <i type="logical" name="LELF"> F  </i>
   <i type="logical" name="LOPTICS"> F  </i>
   <v name="STM">      0.00000000      0.00000000      0.00000000      0.00000000      0.00000000      0.00000000      0.00000000</v>
  </separator>
  <separator name="performance" >
   <i type="int" name="NPAR">    72</i>
   <i type="int" name="NSIM">     4</i>
   <i type="int" name="NBLK">    -1</i>
   <i type="logical" name="LPLANE"> T  </i>
   <i type="logical" name="LSCALAPACK"> F  </i>
   <i type="logical" name="LSCAAWARE"> F  </i>
   <i type="logical" name="LSCALU"> F  </i>
   <i type="logical" name="LASYNC"> F  </i>
   <i type="logical" name="LORBITALREAL"> F  </i>
  </separator>
  <separator name="miscellaneous" >
   <i type="int" name="IDIOT">     3</i>
   <i type="int" name="ISPECIAL">     0</i>
   <i type="logical" name="LMUSIC"> F  </i>
   <v name="POMASS">      7.01000000     92.91000000     16.00000000    180.94800000</v>
   <v name="DARWINR">      0.00000000      0.00000000      0.00000000      0.00000000</v>
   <v name="DARWINV">      1.00000000      1.00000000      1.00000000      1.00000000</v>
   <i type="logical" name="LCORR"> T  </i>
  </separator>
  <i type="logical" name="GGA_COMPAT"> T  </i>
  <i type="logical" name="LBERRY"> F  </i>
  <i type="int" name="ICORELEVEL">     0</i>
  <i type="logical" name="LDAU"> F  </i>
  <i type="int" name="I_CONSTRAINED_M">     0</i>
  <separator name="electronic exchange-correlation" >
   <i type="string" name="GGA">PS</i>
   <i type="int" name="VOSKOWN">     0</i>
   <i type="logical" name="LHFCALC"> F  </i>
   <i type="string" name="PRECFOCK"></i>
   <i type="logical" name="LSYMGRAD"> F  </i>
   <i type="logical" name="LHFONE"> F  </i>
   <i type="logical" name="LRHFCALC"> F  </i>
   <i type="logical" name="LTHOMAS"> F  </i>
   <i type="logical" name="LMODELHF"> F  </i>
   <i name="ENCUT4O">     -1.00000000</i>
   <i type="int" name="EXXOEP">     0</i>
   <i type="int" name="FOURORBIT">     0</i>
   <i name="AEXX">      0.00000000</i>
   <i name="HFALPHA">      0.00000000</i>
   <i name="MCALPHA">      0.00000000</i>
   <i name="ALDAX">      1.00000000</i>
   <i name="AGGAX">      1.00000000</i>
   <i name="ALDAC">      1.00000000</i>
   <i name="AGGAC">      1.00000000</i>
   <i type="int" name="NKREDX">     1</i>
   <i type="int" name="NKREDY">     1</i>
   <i type="int" name="NKREDZ">     1</i>
   <i type="logical" name="SHIFTRED"> F  </i>
   <i type="logical" name="ODDONLY"> F  </i>
   <i type="logical" name="EVENONLY"> F  </i>
   <i type="int" name="LMAXFOCK">     0</i>
   <i type="int" name="NMAXFOCKAE">     0</i>
   <i type="logical" name="LFOCKAEDFT"> F  </i>
   <i name="HFSCREEN">      0.00000000</i>
   <i name="HFSCREENC">      0.00000000</i>
   <i type="int" name="NBANDSGWLOW">     0</i>
  </separator>
  <separator name="vdW DFT" >
   <i type="logical" name="LUSE_VDW"> F  </i>
   <i name="Zab_VDW">     -0.84910000</i>
   <i name="PARAM1">      0.12340000</i>
   <i name="PARAM2">      1.00000000</i>
   <i name="PARAM3">      0.00000000</i>
  </separator>
  <separator name="model GW" >
   <i type="int" name="MODEL_GW">     0</i>
   <i name="MODEL_EPS0">      6.91818131</i>
   <i name="MODEL_ALPHA">      1.00000000</i>
  </separator>
  <separator name="linear response parameters" >
   <i type="logical" name="LEPSILON"> F  </i>
   <i type="logical" name="LRPA"> F  </i>
   <i type="logical" name="LNABLA"> F  </i>
   <i type="logical" name="LVEL"> F  </i>
   <i type="int" name="KINTER">     0</i>
   <i name="CSHIFT">      0.10000000</i>
   <i name="OMEGAMAX">     -1.00000000</i>
   <i name="DEG_THRESHOLD">      0.00200000</i>
   <i name="RTIME">     -0.10000000</i>
   <i name="WPLASMAI">      0.00000000</i>
   <v name="DFIELD">      0.00000000      0.00000000      0.00000000</v>
   <v name="WPLASMA">      0.00000000      0.00000000      0.00000000      0.00000000      0.00000000      0.00000000      0.00000000      0.00000000      0.00000000</v>
  </separator>
  <separator name="orbital magnetization" >
   <i type="logical" name="NUCIND"> F  </i>
   <v name="MAGPOS">      0.00000000      0.00000000      0.00000000</v>
   <i type="logical" name="LNICSALL"> T  </i>
   <i type="logical" name="ORBITALMAG"> F  </i>
   <i type="logical" name="LMAGBLOCH"> F  </i>
   <i type="logical" name="LCHIMAG"> F  </i>
   <i type="logical" name="LGAUGE"> T  </i>
   <i type="int" name="MAGATOM">     0</i>
   <v name="MAGDIPOL">      0.00000000      0.00000000      0.00000000</v>
   <v name="AVECCONST">      0.00000000      0.00000000      0.00000000</v>
  </separator>
  <separator name="response functions" >
   <i type="logical" name="LADDER"> F  </i>
   <i type="logical" name="LRPAFORCE"> F  </i>
   <i type="logical" name="LFXC"> F  </i>
   <i type="logical" name="LHARTREE"> T  </i>
   <i type="int" name="IBSE">     0</i>
   <v type="int" name="KPOINT">    -1     0     0     0</v>
   <i type="logical" name="LTCTE"> F  </i>
   <i type="logical" name="LTETE"> F  </i>
   <i type="logical" name="LTRIPLET"> F  </i>
   <i type="logical" name="LFXCEPS"> F  </i>
   <i type="logical" name="LFXHEG"> F  </i>
   <i type="int" name="NATURALO">     2</i>
   <i type="logical" name="L2ORDER"> F  </i>
   <i type="logical" name="LMP2LT"> F  </i>
   <i type="logical" name="LUSEW"> F  </i>
   <i name="ENCUTGW">     -2.00000000</i>
   <i name="ENCUTGWSOFT">     -2.00000000</i>
   <i name="ENCUTLF">     -1.00000000</i>
   <i type="int" name="LMAXMP2">    -1</i>
   <i name="SCISSOR">      0.00000000</i>
   <i type="int" name="NOMEGA">     0</i>
   <i type="int" name="NOMEGAR">     0</i>
   <i type="int" name="NBANDSGW">    -1</i>
   <i type="int" name="NBANDSO">    -1</i>
   <i type="int" name="NBANDSV">    -1</i>
   <i type="int" name="NELM">  1000</i>
   <i type="int" name="NELMHF">     1</i>
   <i type="int" name="DIM">     3</i>
   <i type="int" name="ANTIRES">     0</i>
   <i name="OMEGAMAX">    -30.00000000</i>
   <i name="OMEGAMIN">    -30.00000000</i>
   <i name="OMEGATL">   -200.00000000</i>
   <i type="int" name="OMEGAGRID">   140</i>
   <i name="CSHIFT">     -0.10000000</i>
   <i type="logical" name="SELFENERGY"> F  </i>
   <i type="logical" name="LSPECTRAL"> F  </i>
   <i type="logical" name="LSPECTRALGW"> F  </i>
   <i type="logical" name="LSINGLES"> F  </i>
   <i type="logical" name="LFERMIGW"> F  </i>
   <i type="logical" name="ODDONLYGW"> F  </i>
   <i type="logical" name="EVENONLYGW"> F  </i>
   <i type="int" name="NKREDLFX">     1</i>
   <i type="int" name="NKREDLFY">     1</i>
   <i type="int" name="NKREDLFZ">     1</i>
   <i type="int" name="MAXMEM">  2800</i>
   <i type="int" name="TELESCOPE">     0</i>
   <i type="int" name="TAUPAR">     1</i>
   <i type="int" name="OMEGAPAR">    -1</i>
   <i name="LAMBDA">      1.00000000</i>
  </separator>
  <separator name="External order field" >
   <i name="OFIELD_KAPPA">      0.00000000</i>
   <v name="OFIELD_K">      0.00000000      0.00000000      0.00000000</v>
   <i name="OFIELD_Q6_NEAR">      0.00000000</i>
   <i name="OFIELD_Q6_FAR">      0.00000000</i>
   <i name="OFIELD_A">      0.00000000</i>
  </separator>
 </parameters>
 <atominfo>
  <atoms>      80 </atoms>
  <types>       4 </types>
  <array name="atoms" >
   <dimension dim="1">ion</dimension>
   <field type="string">element</field>
   <field type="int">atomtype</field>
   <set>
    <rc><c>Li</c><c>   1</c></rc>
    <rc><c>Li</c><c>   1</c></rc>
    <rc><c>Li</c><c>   1</c></rc>
    <rc><c>Li</c><c>   1</c></rc>
    <rc><c>Li</c><c>   1</c></rc>
    <rc><c>Li</c><c>   1</c></rc>
    <rc><c>Li</c><c>   1</c></rc>
    <rc><c>Li</c><c>   1</c></rc>
    <rc><c>Li</c><c>   1</c></rc>
    <rc><c>Li</c><c>   1</c></rc>
    <rc><c>Li</c><c>   1</c></rc>
    <rc><c>Li</c><c>   1</c></rc>
    <rc><c>Li</c><c>   1</c></rc>
    <rc><c>Li</c><c>   1</c></rc>
    <rc><c>Li</c><c>   1</c></rc>
    <rc><c>Li</c><c>   1</c></rc>
    <rc><c>Nb</c><c>   2</c></rc>
    <rc><c>Nb</c><c>   2</c></rc>
    <rc><c>Nb</c><c>   2</c></rc>
    <rc><c>Nb</c><c>   2</c></rc>
    <rc><c>Nb</c><c>   2</c></rc>
    <rc><c>Nb</c><c>   2</c></rc>
    <rc><c>Nb</c><c>   2</c></rc>
    <rc><c>Nb</c><c>   2</c></rc>
    <rc><c>Nb</c><c>   2</c></rc>
    <rc><c>Nb</c><c>   2</c></rc>
    <rc><c>O </c><c>   3</c></rc>
    <rc><c>O </c><c>   3</c></rc>
    <rc><c>O </c><c>   3</c></rc>
    <rc><c>O </c><c>   3</c></rc>
    <rc><c>O </c><c>   3</c></rc>
    <rc><c>O </c><c>   3</c></rc>
    <rc><c>O </c><c>   3</c></rc>
    <rc><c>O </c><c>   3</c></rc>
    <rc><c>O </c><c>   3</c></rc>
    <rc><c>O </c><c>   3</c></rc>
    <rc><c>O </c><c>   3</c></rc>
    <rc><c>O </c><c>   3</c></rc>
    <rc><c>O </c><c>   3</c></rc>
    <rc><c>O </c><c>   3</c></rc>
    <rc><c>O </c><c>   3</c></rc>
    <rc><c>O </c><c>   3</c></rc>
    <rc><c>O </c><c>   3</c></rc>
    <rc><c>O </c><c>   3</c></rc>
    <rc><c>O </c><c>   3</c></rc>
    <rc><c>O </c><c>   3</c></rc>
    <rc><c>O </c><c>   3</c></rc>
    <rc><c>O </c><c>   3</c></rc>
    <rc><c>O </c><c>   3</c></rc>
    <rc><c>O </c><c>   3</c></rc>
    <rc><c>O </c><c>   3</c></rc>
    <rc><c>O </c><c>   3</c></rc>
    <rc><c>O </c><c>   3</c></rc>
    <rc><c>O </c><c>   3</c></rc>
    <rc><c>O </c><c>   3</c></rc>
    <rc><c>O </c><c>   3</c></rc>
    <rc><c>O </c><c>   3</c></rc>
    <rc><c>O </c><c>   3</c></rc>
    <rc><c>O </c><c>   3</c></rc>
    <rc><c>O </c><c>   3</c></rc>
    <rc><c>O </c><c>   3</c></rc>
    <rc><c>O </c><c>   3</c></rc>
    <rc><c>O </c><c>   3</c></rc>
    <rc><c>O </c><c>   3</c></rc>
    <rc><c>O </c><c>   3</c></rc>
    <rc><c>O </c><c>   3</c></rc>
    <rc><c>O </c><c>   3</c></rc>
    <rc><c>O </c><c>   3</c></rc>
    <rc><c>O </c><c>   3</c></rc>
    <rc><c>O </c><c>   3</c></rc>
    <rc><c>O </c><c>   3</c></rc>
    <rc><c>O </c><c>   3</c></rc>
    <rc><c>O </c><c>   3</c></rc>
    <rc><c>O </c><c>   3</c></rc>
    <rc><c>Ta</c><c>   4</c></rc>
    <rc><c>Ta</c><c>   4</c></rc>
    <rc><c>Ta</c><c>   4</c></rc>
    <rc><c>Ta</c><c>   4</c></rc>
    <rc><c>Ta</c><c>   4</c></rc>
    <rc><c>Ta</c><c>   4</c></rc>
   </set>
  </array>
  <array name="atomtypes" >
   <dimension dim="1">type</dimension>
   <field type="int">atomspertype</field>
   <field type="string">element</field>
   <field>mass</field>
   <field>valence</field>
   <field type="string">pseudopotential</field>
   <set>
    <rc><c>  16</c><c>Li</c><c>      7.01000000</c><c>      1.00000000</c><c>  PAW_PBE Li 17Jan2003                  </c></rc>
    <rc><c>  10</c><c>Nb</c><c>     92.91000000</c><c>     13.00000000</c><c>  PAW_PBE Nb_sv 25May2007               </c></rc>
    <rc><c>  48</c><c>O </c><c>     16.00000000</c><c>      6.00000000</c><c>  PAW_PBE O 08Apr2002                   </c></rc>
    <rc><c>   6</c><c>Ta</c><c>    180.94800000</c><c>      5.00000000</c><c>  PAW_PBE Ta 17Jan2003                  </c></rc>
   </set>
  </array>
 </atominfo>
 <structure name="initialpos" >
  <crystal>
   <varray name="basis" >
    <v>       5.29928672      -3.05790289       9.48814281 </v>
    <v>       0.00254431       6.11743860       9.48725523 </v>
    <v>      -5.29660447      -3.05929221       9.48620438 </v>
   </varray>
   <i name="volume">    922.42417529 </i>
   <varray name="rec_basis" >
    <v>       0.09437693      -0.05450245       0.03511819 </v>
    <v>      -0.00002072       0.10897921       0.03513413 </v>
    <v>      -0.09437549      -0.05447770       0.03515285 </v>
   </varray>
  </crystal>
  <varray name="positions" >
   <v>       0.13834752       0.13936271       0.13984335 </v>
   <v>       0.39146324       0.38999630       0.39085144 </v>
   <v>       0.14028321       0.14032414       0.64092124 </v>
   <v>       0.39173469       0.39088444       0.89059988 </v>
   <v>       0.14005761       0.63914415       0.13990376 </v>
   <v>       0.38998511       0.89022976       0.39046082 </v>
   <v>       0.14027342       0.63856692       0.63942290 </v>
   <v>       0.39066873       0.89122478       0.89017412 </v>
   <v>       0.63968950       0.14081636       0.13851063 </v>
   <v>       0.89081879       0.39199278       0.39127564 </v>
   <v>       0.64044608       0.13979598       0.63895884 </v>
   <v>       0.89104424       0.39188824       0.88993991 </v>
   <v>       0.63987068       0.64050964       0.14005521 </v>
   <v>       0.88952244       0.89019616       0.39154151 </v>
   <v>       0.64095434       0.64008558       0.64144699 </v>
   <v>       0.89103108       0.89076076       0.89134632 </v>
   <v>       0.99959237       0.00150112       0.99675172 </v>
   <v>       0.99938324       0.00003493       0.49763958 </v>
   <v>       0.25168038       0.24891337       0.74959517 </v>
   <v>       0.99749990       0.49794372       0.00086033 </v>
   <v>       0.00052440       0.49715140       0.50088067 </v>
   <v>       0.49988249       0.99738472       0.00090131 </v>
   <v>       0.49954620       0.50003968       0.99785757 </v>
   <v>       0.75097315       0.74942469       0.24984287 </v>
   <v>       0.49985523       0.50129758       0.49655071 </v>
   <v>       0.74940214       0.75095878       0.74802348 </v>
   <v>       0.05623360       0.18120304       0.36059596 </v>
   <v>       0.36055215       0.05618073       0.18135900 </v>
   <v>       0.18067803       0.36043515       0.05635112 </v>
   <v>       0.43164615       0.30579781       0.11007695 </v>
   <v>       0.10933811       0.43208088       0.30572184 </v>
   <v>       0.30616879       0.11038237       0.43144631 </v>
   <v>       0.05540035       0.18155956       0.86034038 </v>
   <v>       0.35943918       0.05639020       0.68203455 </v>
   <v>       0.18159346       0.36067916       0.55556672 </v>
   <v>       0.43176800       0.30520898       0.61104129 </v>
   <v>       0.11066152       0.43074915       0.80539644 </v>
   <v>       0.30515946       0.11079423       0.93190663 </v>
   <v>       0.05604537       0.68076856       0.36081137 </v>
   <v>       0.36061507       0.55618152       0.18081868 </v>
   <v>       0.18040413       0.86090372       0.05629587 </v>
   <v>       0.43096027       0.80670950       0.10983535 </v>
   <v>       0.11018018       0.93120277       0.30647725 </v>
   <v>       0.30631393       0.60963452       0.43142758 </v>
   <v>       0.05642617       0.67983109       0.86072292 </v>
   <v>       0.36082901       0.55621291       0.68039936 </v>
   <v>       0.18050111       0.86073339       0.55625759 </v>
   <v>       0.43105925       0.80638098       0.60992686 </v>
   <v>       0.10974163       0.93076687       0.80662904 </v>
   <v>       0.30592914       0.60973059       0.93157562 </v>
   <v>       0.55668960       0.18089021       0.36049958 </v>
   <v>       0.86099568       0.05588109       0.18065345 </v>
   <v>       0.68094161       0.36072792       0.05606070 </v>
   <v>       0.93094987       0.30643726       0.10970186 </v>
   <v>       0.61015919       0.43137998       0.30635721 </v>
   <v>       0.80662739       0.10979363       0.43135599 </v>
   <v>       0.55625493       0.18016866       0.86082204 </v>
   <v>       0.86060460       0.05601788       0.68054061 </v>
   <v>       0.68056339       0.36084158       0.55626059 </v>
   <v>       0.93128773       0.30623948       0.60979445 </v>
   <v>       0.61008613       0.43101265       0.80636497 </v>
   <v>       0.80623116       0.10929440       0.93147945 </v>
   <v>       0.55554077       0.68183433       0.36007734 </v>
   <v>       0.86007458       0.55634829       0.18046819 </v>
   <v>       0.68107200       0.86046774       0.05575260 </v>
   <v>       0.93136114       0.80492582       0.11095065 </v>
   <v>       0.61067752       0.93165297       0.30547765 </v>
   <v>       0.80503784       0.61074302       0.43111591 </v>
   <v>       0.55556968       0.68082022       0.86090541 </v>
   <v>       0.86059508       0.55581627       0.68050717 </v>
   <v>       0.68097931       0.85972506       0.55655493 </v>
   <v>       0.93138973       0.80539064       0.61084254 </v>
   <v>       0.61024363       0.93134011       0.80571432 </v>
   <v>       0.80584636       0.61083297       0.93009391 </v>
   <v>       0.24862253       0.24992729       0.24762435 </v>
   <v>       0.24806756       0.74806531       0.24849505 </v>
   <v>       0.24752603       0.74745881       0.74934160 </v>
   <v>       0.74730972       0.24776208       0.24918815 </v>
   <v>       0.49682629       0.99767190       0.50015434 </v>
   <v>       0.74834988       0.24827406       0.74832874 </v>
  </varray>
 </structure>
 <calculation>
  <scstep>
   <time name="dav">   26.07   26.07</time>
   <time name="total">   26.21   26.23</time>
   <energy>
    <i name="alphaZ">   1491.76369361 </i>
    <i name="ewald"> -25961.08410305 </i>
    <i name="hartreedc"> -11048.41743192 </i>
    <i name="XCdc">   1453.20501200 </i>
    <i name="pawpsdc">  30201.20122080 </i>
    <i name="pawaedc"> -29545.67637776 </i>
    <i name="eentropy">      0.00000000 </i>
    <i name="bandstr">   -116.84915993 </i>
    <i name="atom">  37080.84622879 </i>
    <i name="e_fr_energy">   3554.98908253 </i>
    <i name="e_wo_entrp">   3554.98908253 </i>
    <i name="e_0_energy">   3554.98908253 </i>
   </energy>
  </scstep>
  <scstep>
   <time name="dav">   38.84   38.85</time>
   <time name="total">   38.85   38.86</time>
   <energy>
    <i name="e_fr_energy">   -552.76190911 </i>
    <i name="e_wo_entrp">   -552.76190911 </i>
    <i name="e_0_energy">   -552.76190911 </i>
   </energy>
  </scstep>
  <scstep>
   <time name="dav">   38.60   38.60</time>
   <time name="total">   38.61   38.61</time>
   <energy>
    <i name="e_fr_energy">   -802.26752200 </i>
    <i name="e_wo_entrp">   -802.26752200 </i>
    <i name="e_0_energy">   -802.26752200 </i>
   </energy>
  </scstep>
  <scstep>
   <time name="dav">   44.97   44.98</time>
   <time name="total">   44.98   44.99</time>
   <energy>
    <i name="e_fr_energy">   -813.30805722 </i>
    <i name="e_wo_entrp">   -813.30805722 </i>
    <i name="e_0_energy">   -813.30805722 </i>
   </energy>
  </scstep>
  <scstep>
   <time name="dav">   38.85   38.86</time>
   <time name="total">   39.85   39.86</time>
   <energy>
    <i name="e_fr_energy">   -813.55787112 </i>
    <i name="e_wo_entrp">   -813.55787112 </i>
    <i name="e_0_energy">   -813.55787112 </i>
   </energy>
  </scstep>
  <scstep>
   <time name="diag">    4.00    4.00</time>
   <time name="diis">   13.84   13.84</time>
   <time name="orth">    0.58    0.58</time>
   <time name="total">   19.50   19.51</time>
   <energy>
    <i name="e_fr_energy">   -686.52652100 </i>
    <i name="e_wo_entrp">   -686.52652100 </i>
    <i name="e_0_energy">   -686.52652100 </i>
   </energy>
  </scstep>
  <scstep>
   <time name="diag">    4.01    4.01</time>
   <time name="diis">   15.68   15.68</time>
   <time name="orth">    0.58    0.58</time>
   <time name="total">   21.35   21.36</time>
   <energy>
    <i name="e_fr_energy">   -675.95509354 </i>
    <i name="e_wo_entrp">   -675.95509354 </i>
    <i name="e_0_energy">   -675.95509354 </i>
   </energy>
  </scstep>
  <scstep>
   <time name="diag">    4.06    4.06</time>
   <time name="diis">   15.48   15.48</time>
   <time name="orth">    0.58    0.58</time>
   <time name="total">   21.18   21.19</time>
   <energy>
    <i name="e_fr_energy">   -675.74111998 </i>
    <i name="e_wo_entrp">   -675.74111998 </i>
    <i name="e_0_energy">   -675.74111998 </i>
   </energy>
  </scstep>
  <scstep>
   <time name="diag">    4.03    4.03</time>
   <time name="diis">   17.78   17.78</time>
   <time name="orth">    0.59    0.59</time>
   <time name="total">   23.46   23.46</time>
   <energy>
    <i name="e_fr_energy">   -675.66207213 </i>
    <i name="e_wo_entrp">   -675.66207213 </i>
    <i name="e_0_energy">   -675.66207213 </i>
   </energy>
  </scstep>
  <scstep>
   <time name="diag">    4.03    4.03</time>
   <time name="diis">   17.64   17.64</time>
   <time name="orth">    0.58    0.58</time>
   <time name="total">   23.31   23.32</time>
   <energy>
    <i name="e_fr_energy">   -675.65481428 </i>
    <i name="e_wo_entrp">   -675.65481428 </i>
    <i name="e_0_energy">   -675.65481428 </i>
   </energy>
  </scstep>
  <scstep>
   <time name="diag">    4.02    4.02</time>
   <time name="diis">   18.16   18.15</time>
   <time name="orth">    0.58    0.58</time>
   <time name="total">   23.82   23.83</time>
   <energy>
    <i name="e_fr_energy">   -675.66419211 </i>
    <i name="e_wo_entrp">   -675.66419211 </i>
    <i name="e_0_energy">   -675.66419211 </i>
   </energy>
  </scstep>
  <scstep>
   <time name="diag">    4.01    4.01</time>
   <time name="diis">   17.98   17.98</time>
   <time name="orth">    0.59    0.59</time>
   <time name="total">   23.64   23.66</time>
   <energy>
    <i name="e_fr_energy">   -675.66768940 </i>
    <i name="e_wo_entrp">   -675.66768940 </i>
    <i name="e_0_energy">   -675.66768940 </i>
   </energy>
  </scstep>
  <scstep>
   <time name="diag">    4.02    4.02</time>
   <time name="diis">   18.33   18.32</time>
   <time name="orth">    0.58    0.58</time>
   <time name="total">   23.98   23.99</time>
   <energy>
    <i name="e_fr_energy">   -675.66987053 </i>
    <i name="e_wo_entrp">   -675.66987053 </i>
    <i name="e_0_energy">   -675.66987053 </i>
   </energy>
  </scstep>
  <scstep>
   <time name="diag">    4.01    4.01</time>
   <time name="diis">   17.76   17.76</time>
   <time name="orth">    0.58    0.58</time>
   <time name="total">   23.41   23.42</time>
   <energy>
    <i name="e_fr_energy">   -675.66844058 </i>
    <i name="e_wo_entrp">   -675.66844058 </i>
    <i name="e_0_energy">   -675.66844058 </i>
   </energy>
  </scstep>
  <scstep>
   <time name="diag">    4.02    4.02</time>
   <time name="diis">   18.69   18.69</time>
   <time name="orth">    0.58    0.58</time>
   <time name="total">   24.35   24.36</time>
   <energy>
    <i name="e_fr_energy">   -675.66874471 </i>
    <i name="e_wo_entrp">   -675.66874471 </i>
    <i name="e_0_energy">   -675.66874471 </i>
   </energy>
  </scstep>
  <scstep>
   <time name="diag">    4.01    4.01</time>
   <time name="diis">   18.85   18.84</time>
   <time name="orth">    0.58    0.58</time>
   <time name="total">   24.50   24.51</time>
   <energy>
    <i name="e_fr_energy">   -675.66884979 </i>
    <i name="e_wo_entrp">   -675.66884979 </i>
    <i name="e_0_energy">   -675.66884979 </i>
   </energy>
  </scstep>
  <scstep>
   <time name="diag">    4.03    4.03</time>
   <time name="diis">   18.84   18.84</time>
   <time name="orth">    0.58    0.58</time>
   <time name="total">   24.52   24.53</time>
   <energy>
    <i name="e_fr_energy">   -675.66890115 </i>
    <i name="e_wo_entrp">   -675.66890115 </i>
    <i name="e_0_energy">   -675.66890115 </i>
   </energy>
  </scstep>
  <scstep>
   <time name="diag">    4.02    4.02</time>
   <time name="diis">   18.57   18.57</time>
   <time name="orth">    0.58    0.58</time>
   <time name="total">   24.24   24.25</time>
   <energy>
    <i name="e_fr_energy">   -675.66891896 </i>
    <i name="e_wo_entrp">   -675.66891896 </i>
    <i name="e_0_energy">   -675.66891896 </i>
   </energy>
  </scstep>
  <scstep>
   <time name="diag">    4.01    4.01</time>
   <time name="diis">   17.33   17.33</time>
   <time name="orth">    0.58    0.58</time>
   <time name="total">   22.98   23.00</time>
   <energy>
    <i name="e_fr_energy">   -675.66892799 </i>
    <i name="e_wo_entrp">   -675.66892799 </i>
    <i name="e_0_energy">   -675.66892799 </i>
   </energy>
  </scstep>
  <scstep>
   <time name="diag">    4.03    4.03</time>
   <time name="diis">   16.61   16.61</time>
   <time name="orth">    0.59    0.59</time>
   <time name="total">   22.28   22.29</time>
   <energy>
    <i name="e_fr_energy">   -675.66893265 </i>
    <i name="e_wo_entrp">   -675.66893265 </i>
    <i name="e_0_energy">   -675.66893265 </i>
   </energy>
  </scstep>
  <scstep>
   <time name="diag">    4.02    4.02</time>
   <time name="diis">   15.62   15.62</time>
   <time name="orth">    0.58    0.58</time>
   <time name="total">   21.29   21.30</time>
   <energy>
    <i name="e_fr_energy">   -675.66893468 </i>
    <i name="e_wo_entrp">   -675.66893468 </i>
    <i name="e_0_energy">   -675.66893468 </i>
   </energy>
  </scstep>
  <scstep>
   <time name="diag">    4.02    4.02</time>
   <time name="diis">   14.00   14.00</time>
   <time name="orth">    0.59    0.59</time>
   <time name="total">   19.67   19.69</time>
   <energy>
    <i name="e_fr_energy">   -675.66893603 </i>
    <i name="e_wo_entrp">   -675.66893603 </i>
    <i name="e_0_energy">   -675.66893603 </i>
   </energy>
  </scstep>
  <scstep>
   <time name="diag">    4.01    4.01</time>
   <time name="diis">   11.69   11.69</time>
   <time name="orth">    0.58    0.58</time>
   <time name="total">   16.36   16.37</time>
   <energy>
    <i name="alphaZ">   1491.76369361 </i>
    <i name="ewald"> -25961.08410305 </i>
    <i name="hartreedc"> -11370.68074481 </i>
    <i name="XCdc">   1495.88379551 </i>
    <i name="pawpsdc">  41621.82798357 </i>
    <i name="pawaedc"> -40957.86688186 </i>
    <i name="eentropy">      0.00000000 </i>
    <i name="bandstr">  -4076.35890818 </i>
    <i name="atom">  37080.84622879 </i>
    <i name="e_fr_energy">   -675.66893643 </i>
    <i name="e_wo_entrp">   -675.66893643 </i>
    <i name="e_0_energy">   -675.66893643 </i>
   </energy>
  </scstep>
  <structure>
   <crystal>
    <varray name="basis" >
     <v>       5.29928672      -3.05790289       9.48814281 </v>
     <v>       0.00254431       6.11743860       9.48725523 </v>
     <v>      -5.29660447      -3.05929221       9.48620438 </v>
    </varray>
    <i name="volume">    922.42417529 </i>
    <varray name="rec_basis" >
     <v>       0.09437693      -0.05450245       0.03511819 </v>
     <v>      -0.00002072       0.10897921       0.03513413 </v>
     <v>      -0.09437549      -0.05447770       0.03515285 </v>
    </varray>
   </crystal>
   <varray name="positions" >
    <v>       0.13834752       0.13936271       0.13984335 </v>
    <v>       0.39146324       0.38999630       0.39085144 </v>
    <v>       0.14028321       0.14032414       0.64092124 </v>
    <v>       0.39173469       0.39088444       0.89059988 </v>
    <v>       0.14005761       0.63914415       0.13990376 </v>
    <v>       0.38998511       0.89022976       0.39046082 </v>
    <v>       0.14027342       0.63856692       0.63942290 </v>
    <v>       0.39066873       0.89122478       0.89017412 </v>
    <v>       0.63968950       0.14081636       0.13851063 </v>
    <v>       0.89081879       0.39199278       0.39127564 </v>
    <v>       0.64044608       0.13979598       0.63895884 </v>
    <v>       0.89104424       0.39188824       0.88993991 </v>
    <v>       0.63987068       0.64050964       0.14005521 </v>
    <v>       0.88952244       0.89019616       0.39154151 </v>
    <v>       0.64095434       0.64008558       0.64144699 </v>
    <v>       0.89103108       0.89076076       0.89134632 </v>
    <v>       0.99959237       0.00150112       0.99675172 </v>
    <v>       0.99938324       0.00003493       0.49763958 </v>
    <v>       0.25168038       0.24891337       0.74959517 </v>
    <v>       0.99749990       0.49794372       0.00086033 </v>
    <v>       0.00052440       0.49715140       0.50088067 </v>
    <v>       0.49988249       0.99738472       0.00090131 </v>
    <v>       0.49954620       0.50003968       0.99785757 </v>
    <v>       0.75097315       0.74942469       0.24984287 </v>
    <v>       0.49985523       0.50129758       0.49655071 </v>
    <v>       0.74940214       0.75095878       0.74802348 </v>
    <v>       0.05623360       0.18120304       0.36059596 </v>
    <v>       0.36055215       0.05618073       0.18135900 </v>
    <v>       0.18067803       0.36043515       0.05635112 </v>
    <v>       0.43164615       0.30579781       0.11007695 </v>
    <v>       0.10933811       0.43208088       0.30572184 </v>
    <v>       0.30616879       0.11038237       0.43144631 </v>
    <v>       0.05540035       0.18155956       0.86034038 </v>
    <v>       0.35943918       0.05639020       0.68203455 </v>
    <v>       0.18159346       0.36067916       0.55556672 </v>
    <v>       0.43176800       0.30520898       0.61104129 </v>
    <v>       0.11066152       0.43074915       0.80539644 </v>
    <v>       0.30515946       0.11079423       0.93190663 </v>
    <v>       0.05604537       0.68076856       0.36081137 </v>
    <v>       0.36061507       0.55618152       0.18081868 </v>
    <v>       0.18040413       0.86090372       0.05629587 </v>
    <v>       0.43096027       0.80670950       0.10983535 </v>
    <v>       0.11018018       0.93120277       0.30647725 </v>
    <v>       0.30631393       0.60963452       0.43142758 </v>
    <v>       0.05642617       0.67983109       0.86072292 </v>
    <v>       0.36082901       0.55621291       0.68039936 </v>
    <v>       0.18050111       0.86073339       0.55625759 </v>
    <v>       0.43105925       0.80638098       0.60992686 </v>
    <v>       0.10974163       0.93076687       0.80662904 </v>
    <v>       0.30592914       0.60973059       0.93157562 </v>
    <v>       0.55668960       0.18089021       0.36049958 </v>
    <v>       0.86099568       0.05588109       0.18065345 </v>
    <v>       0.68094161       0.36072792       0.05606070 </v>
    <v>       0.93094987       0.30643726       0.10970186 </v>
    <v>       0.61015919       0.43137998       0.30635721 </v>
    <v>       0.80662739       0.10979363       0.43135599 </v>
    <v>       0.55625493       0.18016866       0.86082204 </v>
    <v>       0.86060460       0.05601788       0.68054061 </v>
    <v>       0.68056339       0.36084158       0.55626059 </v>
    <v>       0.93128773       0.30623948       0.60979445 </v>
    <v>       0.61008613       0.43101265       0.80636497 </v>
    <v>       0.80623116       0.10929440       0.93147945 </v>
    <v>       0.55554077       0.68183433       0.36007734 </v>
    <v>       0.86007458       0.55634829       0.18046819 </v>
    <v>       0.68107200       0.86046774       0.05575260 </v>
    <v>       0.93136114       0.80492582       0.11095065 </v>
    <v>       0.61067752       0.93165297       0.30547765 </v>
    <v>       0.80503784       0.61074302       0.43111591 </v>
    <v>       0.55556968       0.68082022       0.86090541 </v>
    <v>       0.86059508       0.55581627       0.68050717 </v>
    <v>       0.68097931       0.85972506       0.55655493 </v>
    <v>       0.93138973       0.80539064       0.61084254 </v>
    <v>       0.61024363       0.93134011       0.80571432 </v>
    <v>       0.80584636       0.61083297       0.93009391 </v>
    <v>       0.24862253       0.24992729       0.24762435 </v>
    <v>       0.24806756       0.74806531       0.24849505 </v>
    <v>       0.24752603       0.74745881       0.74934160 </v>
    <v>       0.74730972       0.24776208       0.24918815 </v>
    <v>       0.49682629       0.99767190       0.50015434 </v>
    <v>       0.74834988       0.24827406       0.74832874 </v>
   </varray>
  </structure>
  <varray name="forces" >
   <v>      -0.00125187      -0.00007653      -0.01328979 </v>
   <v>       0.00279625      -0.00106791      -0.00178427 </v>
   <v>       0.00326654      -0.00222125      -0.00664821 </v>
   <v>       0.00206138       0.00043417       0.00772152 </v>
   <v>       0.00105198      -0.00477942      -0.01039581 </v>
   <v>      -0.00216744      -0.00062170      -0.00065959 </v>
   <v>       0.00354411      -0.00133070      -0.00930543 </v>
   <v>       0.00286078       0.00186201      -0.00364463 </v>
   <v>      -0.00162250       0.00573997      -0.00877398 </v>
   <v>       0.00021645      -0.00457208       0.00622198 </v>
   <v>       0.00382399       0.00266187      -0.00873150 </v>
   <v>      -0.00054095      -0.00197453       0.00072988 </v>
   <v>      -0.00440909      -0.00127690      -0.00795201 </v>
   <v>      -0.00349572       0.00253682      -0.00220726 </v>
   <v>      -0.00048655       0.00053143      -0.00227990 </v>
   <v>       0.00090416       0.00500096       0.00567199 </v>
   <v>       0.07257310       0.10916597       0.63680922 </v>
   <v>       0.03455099       0.04085864       0.58139391 </v>
   <v>       0.05007368      -0.03622028       0.71192734 </v>
   <v>      -0.10101110      -0.03056815       0.59718080 </v>
   <v>      -0.02664125      -0.11584045       0.66867346 </v>
   <v>       0.00390132      -0.09542934       0.64110833 </v>
   <v>       0.05596283       0.06308358       0.60572644 </v>
   <v>       0.03962930      -0.06510109       0.74007120 </v>
   <v>       0.07330353       0.09146650       0.60617004 </v>
   <v>       0.03174181       0.04456856       0.66726179 </v>
   <v>      -0.11091615      -0.94923188      -0.14619637 </v>
   <v>       0.86652171       0.36498586      -0.12237625 </v>
   <v>      -0.77402913       0.51075722      -0.09108337 </v>
   <v>      -1.06283164       0.28141751      -0.31268391 </v>
   <v>       0.29015984      -1.04759440      -0.29072074 </v>
   <v>       0.79406409       0.57434374      -0.14168749 </v>
   <v>      -0.30611018      -1.03588156      -0.30309176 </v>
   <v>       1.02783973       0.27923482      -0.28442832 </v>
   <v>      -0.74308695       0.75307522      -0.28179675 </v>
   <v>      -1.01997134       0.25421388      -0.27633420 </v>
   <v>       0.24175007      -0.97732892      -0.21270832 </v>
   <v>       0.74412841       0.72340142      -0.25276206 </v>
   <v>      -0.04696407      -0.90907816      -0.06824993 </v>
   <v>       0.82239757       0.41307572      -0.08597896 </v>
   <v>      -0.74047951       0.52237182      -0.09000676 </v>
   <v>      -0.97290711       0.30108002      -0.23790782 </v>
   <v>       0.22429942      -0.99918960      -0.24821389 </v>
   <v>       0.75793332       0.71101907      -0.25326085 </v>
   <v>      -0.04307937      -0.88503469      -0.05788157 </v>
   <v>       0.81458139       0.41784850      -0.08122213 </v>
   <v>      -0.74922048       0.53790638      -0.11307401 </v>
   <v>      -0.86956929       0.41536197      -0.12052706 </v>
   <v>       0.23369750      -1.01306951      -0.26128408 </v>
   <v>       0.76131457       0.73955309      -0.28722709 </v>
   <v>      -0.06987187      -0.94179811      -0.11019296 </v>
   <v>       0.83120859       0.41643682      -0.09685220 </v>
   <v>      -0.75981936       0.52648429      -0.10272024 </v>
   <v>      -0.94331925       0.32059580      -0.21059432 </v>
   <v>       0.21539288      -1.00433573      -0.25039805 </v>
   <v>       0.75329937       0.70284612      -0.25731565 </v>
   <v>      -0.07421726      -0.91795245      -0.08833520 </v>
   <v>       0.83948453       0.40216950      -0.10231539 </v>
   <v>      -0.74139800       0.52474719      -0.09135302 </v>
   <v>      -0.99621498       0.29551213      -0.25469618 </v>
   <v>       0.24349163      -1.01630959      -0.26377024 </v>
   <v>       0.76105222       0.71472575      -0.24787652 </v>
   <v>      -0.28756810      -1.01987668      -0.28445123 </v>
   <v>       0.98725777       0.26207288      -0.25371469 </v>
   <v>      -0.74252646       0.75230917      -0.27657771 </v>
   <v>      -1.04043912       0.24970324      -0.28658536 </v>
   <v>       0.11271227      -0.95269201      -0.12476294 </v>
   <v>       0.74875746       0.77527462      -0.28149232 </v>
   <v>      -0.26493412      -1.00243296      -0.27435304 </v>
   <v>       0.98969958       0.25383866      -0.23895621 </v>
   <v>      -0.76585928       0.70632945      -0.25201268 </v>
   <v>      -0.97716490       0.29631604      -0.24945315 </v>
   <v>       0.24750737      -0.98042095      -0.22918526 </v>
   <v>       0.71898007       0.64826229      -0.18867143 </v>
   <v>       0.04289148       0.04905234       0.58337281 </v>
   <v>      -0.00982525      -0.00379141       0.53550278 </v>
   <v>      -0.06222527      -0.01874010       0.53566981 </v>
   <v>      -0.05621853      -0.00681963       0.50364225 </v>
   <v>      -0.08010627      -0.03639554       0.51417794 </v>
   <v>      -0.00018534       0.01482120       0.56397857 </v>
  </varray>
  <varray name="stress" >
   <v>    -182.74496693      -0.03945890       0.01018137 </v>
   <v>      -0.03945866    -182.73063213       0.00524748 </v>
   <v>       0.01018110       0.00524741    -165.62906216 </v>
  </varray>
  <energy>
   <i name="e_fr_energy">   -675.66893643 </i>
   <i name="e_wo_entrp">   -675.66893643 </i>
   <i name="e_0_energy">      0.00000000 </i>
  </energy>
  <time name="totalsc">  625.26  625.53</time>
 </calculation>
 <calculation>
  <scstep>
   <time name="dav">   32.44   32.43</time>
   <time name="total">   33.50   33.52</time>
   <energy>
    <i name="alphaZ">   1491.76369361 </i>
    <i name="ewald"> -25900.46239383 </i>
    <i name="hartreedc"> -11418.56890304 </i>
    <i name="XCdc">   1496.49312359 </i>
    <i name="pawpsdc">  41621.82098642 </i>
    <i name="pawaedc"> -40957.85958120 </i>
    <i name="eentropy">      0.00000000 </i>
    <i name="bandstr">  -4090.33187161 </i>
    <i name="atom">  37080.84622879 </i>
    <i name="e_fr_energy">   -676.29871728 </i>
    <i name="e_wo_entrp">   -676.29871728 </i>
    <i name="e_0_energy">   -676.29871728 </i>
   </energy>
  </scstep>
  <scstep>
   <time name="diag">    4.01    4.01</time>
   <time name="diis">   13.42   13.42</time>
   <time name="orth">    0.58    0.58</time>
   <time name="total">   19.07   19.08</time>
   <energy>
    <i name="e_fr_energy">   -676.44181126 </i>
    <i name="e_wo_entrp">   -676.44181126 </i>
    <i name="e_0_energy">   -676.44181126 </i>
   </energy>
  </scstep>
  <scstep>
   <time name="diag">    4.02    4.02</time>
   <time name="diis">   14.43   14.43</time>
   <time name="orth">    0.58    0.58</time>
   <time name="total">   20.09   20.11</time>
   <energy>
    <i name="e_fr_energy">   -676.42242405 </i>
    <i name="e_wo_entrp">   -676.42242405 </i>
    <i name="e_0_energy">   -676.42242405 </i>
   </energy>
  </scstep>
  <scstep>
   <time name="diag">    4.05    4.05</time>
   <time name="diis">   17.61   17.61</time>
   <time name="orth">    0.58    0.58</time>
   <time name="total">   23.30   23.32</time>
   <energy>
    <i name="e_fr_energy">   -676.42178400 </i>
    <i name="e_wo_entrp">   -676.42178400 </i>
    <i name="e_0_energy">   -676.42178400 </i>
   </energy>
  </scstep>
  <scstep>
   <time name="diag">    4.02    4.02</time>
   <time name="diis">   18.29   18.29</time>
   <time name="orth">    0.58    0.58</time>
   <time name="total">   23.95   23.96</time>
   <energy>
    <i name="e_fr_energy">   -676.42198465 </i>
    <i name="e_wo_entrp">   -676.42198465 </i>
    <i name="e_0_energy">   -676.42198465 </i>
   </energy>
  </scstep>
  <scstep>
   <time name="diag">    4.03    4.03</time>
   <time name="diis">   19.57   19.57</time>
   <time name="orth">    0.59    0.59</time>
   <time name="total">   25.25   25.26</time>
   <energy>
    <i name="e_fr_energy">   -676.42214389 </i>
    <i name="e_wo_entrp">   -676.42214389 </i>
    <i name="e_0_energy">   -676.42214389 </i>
   </energy>
  </scstep>
  <scstep>
   <time name="diag">    4.02    4.02</time>
   <time name="diis">   19.78   19.77</time>
   <time name="orth">    0.59    0.59</time>
   <time name="total">   25.45   25.46</time>
   <energy>
    <i name="e_fr_energy">   -676.42220362 </i>
    <i name="e_wo_entrp">   -676.42220362 </i>
    <i name="e_0_energy">   -676.42220362 </i>
   </energy>
  </scstep>
  <scstep>
   <time name="diag">    4.01    4.01</time>
   <time name="diis">   19.53   19.53</time>
   <time name="orth">    0.58    0.58</time>
   <time name="total">   25.19   25.19</time>
   <energy>
    <i name="e_fr_energy">   -676.42222858 </i>
    <i name="e_wo_entrp">   -676.42222858 </i>
    <i name="e_0_energy">   -676.42222858 </i>
   </energy>
  </scstep>
  <scstep>
   <time name="diag">    4.01    4.01</time>
   <time name="diis">   19.27   19.26</time>
   <time name="orth">    0.59    0.59</time>
   <time name="total">   24.92   24.94</time>
   <energy>
    <i name="e_fr_energy">   -676.42224006 </i>
    <i name="e_wo_entrp">   -676.42224006 </i>
    <i name="e_0_energy">   -676.42224006 </i>
   </energy>
  </scstep>
  <scstep>
   <time name="diag">    4.01    4.01</time>
   <time name="diis">   18.23   18.23</time>
   <time name="orth">    0.58    0.58</time>
   <time name="total">   23.87   23.89</time>
   <energy>
    <i name="e_fr_energy">   -676.42224439 </i>
    <i name="e_wo_entrp">   -676.42224439 </i>
    <i name="e_0_energy">   -676.42224439 </i>
   </energy>
  </scstep>
  <scstep>
   <time name="diag">    4.01    4.01</time>
   <time name="diis">   16.67   16.67</time>
   <time name="orth">    0.59    0.59</time>
   <time name="total">   22.32   22.33</time>
   <energy>
    <i name="e_fr_energy">   -676.42224668 </i>
    <i name="e_wo_entrp">   -676.42224668 </i>
    <i name="e_0_energy">   -676.42224668 </i>
   </energy>
  </scstep>
  <scstep>
   <time name="diag">    4.03    4.03</time>
   <time name="diis">   14.61   14.61</time>
   <time name="orth">    0.58    0.58</time>
   <time name="total">   20.29   20.30</time>
   <energy>
    <i name="e_fr_energy">   -676.42224766 </i>
    <i name="e_wo_entrp">   -676.42224766 </i>
    <i name="e_0_energy">   -676.42224766 </i>
   </energy>
  </scstep>
  <scstep>
   <time name="diag">    4.03    4.03</time>
   <time name="diis">   12.85   12.85</time>
   <time name="orth">    0.58    0.58</time>
   <time name="total">   17.53   17.54</time>
   <energy>
    <i name="alphaZ">   1491.76369361 </i>
    <i name="ewald"> -25900.46239383 </i>
    <i name="hartreedc"> -11433.53684412 </i>
    <i name="XCdc">   1497.06430008 </i>
    <i name="pawpsdc">  42139.38738932 </i>
    <i name="pawaedc"> -41474.64530877 </i>
    <i name="eentropy">      0.00000000 </i>
    <i name="bandstr">  -4076.83931294 </i>
    <i name="atom">  37080.84622879 </i>
    <i name="e_fr_energy">   -676.42224787 </i>
    <i name="e_wo_entrp">   -676.42224787 </i>
    <i name="e_0_energy">   -676.42224787 </i>
   </energy>
  </scstep>
  <structure>
   <crystal>
    <varray name="basis" >
     <v>       5.29615953      -3.05610648       9.49942184 </v>
     <v>       0.00252772       6.11381680       9.49853260 </v>
     <v>      -5.29343362      -3.05745143       9.49746986 </v>
    </varray>
    <i name="volume">    922.42417529 </i>
    <varray name="rec_basis" >
     <v>       0.09443279      -0.05453441       0.03507644 </v>
     <v>      -0.00002032       0.10904384       0.03509237 </v>
     <v>      -0.09443188      -0.05451042       0.03511126 </v>
    </varray>
   </crystal>
   <varray name="positions" >
    <v>       0.13833912       0.13935584       0.13983836 </v>
    <v>       0.39146699       0.38999371       0.39084755 </v>
    <v>       0.14028604       0.14031726       0.64091515 </v>
    <v>       0.39174109       0.39088905       0.89060065 </v>
    <v>       0.14005753       0.63913133       0.13990080 </v>
    <v>       0.38998230       0.89022845       0.39046393 </v>
    <v>       0.14027458       0.63856009       0.63941438 </v>
    <v>       0.39066931       0.89122586       0.89016689 </v>
    <v>       0.63967830       0.14082096       0.13850386 </v>
    <v>       0.89082585       0.39198873       0.39128212 </v>
    <v>       0.64044476       0.13979574       0.63894708 </v>
    <v>       0.89104543       0.39188550       0.88994258 </v>
    <v>       0.63986162       0.64050358       0.14005819 </v>
    <v>       0.88951455       0.89019904       0.39154317 </v>
    <v>       0.64095210       0.64008526       0.64144607 </v>
    <v>       0.89103125       0.89077154       0.89134403 </v>
    <v>       0.99992905       0.00199708       0.99689051 </v>
    <v>       0.99969371       0.00039499       0.49785596 </v>
    <v>       0.25213918       0.24921824       0.74991753 </v>
    <v>       0.99768956       0.49819920       0.00132622 </v>
    <v>       0.00091924       0.49730871       0.50134858 </v>
    <v>       0.50028894       0.99756020       0.00129739 </v>
    <v>       0.49988075       0.50044716       0.99803956 </v>
    <v>       0.75145478       0.74969832       0.25021659 </v>
    <v>       0.50019130       0.50175005       0.49668687 </v>
    <v>       0.74974948       0.75136836       0.74828446 </v>
    <v>       0.05675655       0.17963158       0.36142149 </v>
    <v>       0.36138563       0.05669391       0.17982541 </v>
    <v>       0.17917161       0.36119465       0.05695930 </v>
    <v>       0.42981353       0.30608300       0.11114768 </v>
    <v>       0.11041302       0.43028067       0.30600358 </v>
    <v>       0.30672834       0.11121596       0.42983679 </v>
    <v>       0.05564529       0.17977170       0.86142102 </v>
    <v>       0.36047828       0.05668568       0.68026578 </v>
    <v>       0.17984122       0.36172387       0.55584456 </v>
    <v>       0.43003385       0.30546972       0.61209342 </v>
    <v>       0.11165453       0.42909944       0.80572859 </v>
    <v>       0.30547678       0.11180646       0.93019129 </v>
    <v>       0.05666361       0.67930004       0.36155755 </v>
    <v>       0.36136884       0.55678907       0.17932596 </v>
    <v>       0.17893491       0.86168208       0.05684963 </v>
    <v>       0.42927297       0.80706370       0.11080580 </v>
    <v>       0.11114856       0.92950053       0.30683241 </v>
    <v>       0.30665961       0.61062695       0.42970289 </v>
    <v>       0.05703602       0.67840577       0.86145012 </v>
    <v>       0.36157076       0.55683041       0.67891597 </v>
    <v>       0.17899598       0.86152452       0.55679929 </v>
    <v>       0.42948261       0.80697508       0.61072577 </v>
[...]
       <r>    1.0343    1.0000 </r>
       <r>    1.0479    1.0000 </r>
       <r>    1.0498    1.0000 </r>
       <r>    1.1161    1.0000 </r>
       <r>    1.1322    1.0000 </r>
       <r>    1.1516    1.0000 </r>
       <r>    1.1529    1.0000 </r>
       <r>    1.1900    1.0000 </r>
       <r>    1.2559    1.0000 </r>
       <r>    1.2632    1.0000 </r>
       <r>    1.2790    1.0000 </r>
       <r>    1.3217    1.0000 </r>
       <r>    1.3374    1.0000 </r>
       <r>    1.3431    1.0000 </r>
       <r>    1.3556    1.0000 </r>
       <r>    1.3630    1.0000 </r>
       <r>    1.3860    1.0000 </r>
       <r>    1.4063    1.0000 </r>
       <r>    1.4327    1.0000 </r>
       <r>    1.4673    1.0000 </r>
       <r>    1.4884    1.0000 </r>
       <r>    1.4954    1.0000 </r>
       <r>    1.4985    1.0000 </r>
       <r>    1.5114    1.0000 </r>
       <r>    1.5452    1.0000 </r>
       <r>    1.5823    1.0000 </r>
       <r>    1.6123    1.0000 </r>
       <r>    1.6264    1.0000 </r>
       <r>    1.6321    1.0000 </r>
       <r>    1.6412    1.0000 </r>
       <r>    1.6986    1.0000 </r>
       <r>    1.7210    1.0000 </r>
       <r>    1.7305    1.0000 </r>
       <r>    1.7466    1.0000 </r>
       <r>    1.7748    1.0000 </r>
       <r>    1.7961    1.0000 </r>
       <r>    1.9316    1.0000 </r>
       <r>    1.9502    1.0000 </r>
       <r>    1.9615    1.0000 </r>
       <r>    1.9726    1.0000 </r>
       <r>    1.9856    1.0000 </r>
       <r>    2.0038    1.0000 </r>
       <r>    2.0093    1.0000 </r>
       <r>    2.0189    1.0000 </r>
       <r>    2.0389    1.0000 </r>
       <r>    2.0927    1.0000 </r>
       <r>    5.6365    0.0000 </r>
       <r>    5.6466    0.0000 </r>
       <r>    5.8179    0.0000 </r>
       <r>    5.8450    0.0000 </r>
       <r>    5.8929    0.0000 </r>
       <r>    5.9201    0.0000 </r>
       <r>    5.9354    0.0000 </r>
       <r>    6.0116    0.0000 </r>
       <r>    6.0322    0.0000 </r>
       <r>    6.0416    0.0000 </r>
       <r>    6.0627    0.0000 </r>
       <r>    6.0819    0.0000 </r>
       <r>    6.1166    0.0000 </r>
       <r>    6.1308    0.0000 </r>
       <r>    6.1548    0.0000 </r>
       <r>    6.2065    0.0000 </r>
       <r>    6.2341    0.0000 </r>
       <r>    6.3427    0.0000 </r>
       <r>    6.3820    0.0000 </r>
       <r>    6.4118    0.0000 </r>
       <r>    6.4496    0.0000 </r>
       <r>    6.5332    0.0000 </r>
       <r>    6.6184    0.0000 </r>
       <r>    6.6569    0.0000 </r>
       <r>    6.7928    0.0000 </r>
       <r>    6.8776    0.0000 </r>
       <r>    6.8950    0.0000 </r>
       <r>    6.9684    0.0000 </r>
       <r>    6.9815    0.0000 </r>
       <r>    7.0024    0.0000 </r>
       <r>    7.0870    0.0000 </r>
       <r>    7.1014    0.0000 </r>
       <r>    7.1645    0.0000 </r>
       <r>    7.2293    0.0000 </r>
       <r>    7.2577    0.0000 </r>
       <r>    7.2791    0.0000 </r>
       <r>    7.3267    0.0000 </r>
       <r>    7.3630    0.0000 </r>
       <r>    7.4237    0.0000 </r>
       <r>    7.4310    0.0000 </r>
       <r>    7.5112    0.0000 </r>
       <r>    7.5448    0.0000 </r>
       <r>    7.6035    0.0000 </r>
       <r>    7.6308    0.0000 </r>
       <r>    7.6335    0.0000 </r>
       <r>    7.6605    0.0000 </r>
       <r>    7.7191    0.0000 </r>
       <r>    7.7906    0.0000 </r>
       <r>    8.9004    0.0000 </r>
       <r>    9.2092    0.0000 </r>
       <r>    9.3190    0.0000 </r>
       <r>    9.4101    0.0000 </r>
       <r>    9.4270    0.0000 </r>
       <r>    9.4717    0.0000 </r>
       <r>    9.5442    0.0000 </r>
       <r>    9.5970    0.0000 </r>
      </set>
      <set comment="kpoint 36">
       <r>  -52.1640    1.0000 </r>
       <r>  -52.1514    1.0000 </r>
       <r>  -52.1370    1.0000 </r>
       <r>  -52.1360    1.0000 </r>
       <r>  -52.1165    1.0000 </r>
       <r>  -52.1161    1.0000 </r>
       <r>  -52.0901    1.0000 </r>
       <r>  -52.0865    1.0000 </r>
       <r>  -52.0823    1.0000 </r>
       <r>  -52.0650    1.0000 </r>
       <r>  -28.4164    1.0000 </r>
       <r>  -28.4139    1.0000 </r>
       <r>  -28.4130    1.0000 </r>
       <r>  -28.4048    1.0000 </r>
       <r>  -28.3984    1.0000 </r>
       <r>  -28.3884    1.0000 </r>
       <r>  -28.3859    1.0000 </r>
       <r>  -28.3792    1.0000 </r>
       <r>  -28.3745    1.0000 </r>
       <r>  -28.3696    1.0000 </r>
       <r>  -28.3581    1.0000 </r>
       <r>  -28.3438    1.0000 </r>
       <r>  -28.3421    1.0000 </r>
       <r>  -28.3391    1.0000 </r>
       <r>  -28.3334    1.0000 </r>
       <r>  -28.3268    1.0000 </r>
       <r>  -28.3266    1.0000 </r>
       <r>  -28.3185    1.0000 </r>
       <r>  -28.3075    1.0000 </r>
       <r>  -28.3052    1.0000 </r>
       <r>  -28.2920    1.0000 </r>
       <r>  -28.2909    1.0000 </r>
       <r>  -28.2756    1.0000 </r>
       <r>  -28.2692    1.0000 </r>
       <r>  -28.2668    1.0000 </r>
       <r>  -28.2651    1.0000 </r>
       <r>  -28.2452    1.0000 </r>
       <r>  -28.2270    1.0000 </r>
       <r>  -28.2181    1.0000 </r>
       <r>  -28.2068    1.0000 </r>
       <r>  -14.6707    1.0000 </r>
       <r>  -14.6176    1.0000 </r>
       <r>  -14.4420    1.0000 </r>
       <r>  -14.4138    1.0000 </r>
       <r>  -14.3955    1.0000 </r>
       <r>  -14.3361    1.0000 </r>
       <r>  -14.3136    1.0000 </r>
       <r>  -14.2861    1.0000 </r>
       <r>  -14.1469    1.0000 </r>
       <r>  -14.1122    1.0000 </r>
       <r>  -14.0946    1.0000 </r>
       <r>  -14.0924    1.0000 </r>
       <r>  -14.0879    1.0000 </r>
       <r>  -14.0685    1.0000 </r>
       <r>  -13.9798    1.0000 </r>
       <r>  -13.9712    1.0000 </r>
       <r>  -13.9618    1.0000 </r>
       <r>  -13.9523    1.0000 </r>
       <r>  -13.9381    1.0000 </r>
       <r>  -13.9257    1.0000 </r>
       <r>  -13.9184    1.0000 </r>
       <r>  -13.9124    1.0000 </r>
       <r>  -13.9053    1.0000 </r>
       <r>  -13.8925    1.0000 </r>
       <r>  -13.6263    1.0000 </r>
       <r>  -13.5908    1.0000 </r>
       <r>  -13.5624    1.0000 </r>
       <r>  -13.5419    1.0000 </r>
       <r>  -13.5248    1.0000 </r>
       <r>  -13.5192    1.0000 </r>
       <r>  -13.5118    1.0000 </r>
       <r>  -13.4987    1.0000 </r>
       <r>  -13.4889    1.0000 </r>
       <r>  -13.4846    1.0000 </r>
       <r>  -13.4813    1.0000 </r>
       <r>  -13.4587    1.0000 </r>
       <r>  -13.4530    1.0000 </r>
       <r>  -13.4297    1.0000 </r>
       <r>  -13.4146    1.0000 </r>
       <r>  -13.4000    1.0000 </r>
       <r>  -13.3970    1.0000 </r>
       <r>  -13.3895    1.0000 </r>
       <r>  -13.3738    1.0000 </r>
       <r>  -13.3359    1.0000 </r>
       <r>  -13.3129    1.0000 </r>
       <r>  -13.2975    1.0000 </r>
       <r>  -13.2820    1.0000 </r>
       <r>  -13.2654    1.0000 </r>
       <r>   -2.4064    1.0000 </r>
       <r>   -2.3949    1.0000 </r>
       <r>   -2.3846    1.0000 </r>
       <r>   -2.3578    1.0000 </r>
       <r>   -2.3021    1.0000 </r>
       <r>   -2.2599    1.0000 </r>
       <r>   -2.2387    1.0000 </r>
       <r>   -2.1776    1.0000 </r>
       <r>   -2.1588    1.0000 </r>
       <r>   -2.1531    1.0000 </r>
       <r>   -2.1366    1.0000 </r>
       <r>   -2.1196    1.0000 </r>
       <r>   -2.1169    1.0000 </r>
       <r>   -2.1034    1.0000 </r>
       <r>   -2.0943    1.0000 </r>
       <r>   -2.0821    1.0000 </r>
       <r>   -2.0798    1.0000 </r>
       <r>   -2.0786    1.0000 </r>
       <r>   -2.0693    1.0000 </r>
       <r>   -2.0628    1.0000 </r>
       <r>   -2.0433    1.0000 </r>
       <r>   -2.0229    1.0000 </r>
       <r>   -1.9082    1.0000 </r>
       <r>   -1.8552    1.0000 </r>
       <r>   -1.7843    1.0000 </r>
       <r>   -1.7661    1.0000 </r>
       <r>   -1.7604    1.0000 </r>
       <r>   -1.7560    1.0000 </r>
       <r>   -1.7474    1.0000 </r>
       <r>   -1.7343    1.0000 </r>
       <r>   -1.6178    1.0000 </r>
       <r>   -1.6156    1.0000 </r>
       <r>   -1.5887    1.0000 </r>
       <r>   -1.5868    1.0000 </r>
       <r>   -1.3621    1.0000 </r>
       <r>   -1.2947    1.0000 </r>
       <r>   -1.1297    1.0000 </r>
       <r>   -1.1170    1.0000 </r>
       <r>   -1.0970    1.0000 </r>
       <r>   -1.0917    1.0000 </r>
       <r>   -1.0789    1.0000 </r>
       <r>   -1.0727    1.0000 </r>
       <r>   -0.9019    1.0000 </r>
       <r>   -0.8755    1.0000 </r>
       <r>   -0.8695    1.0000 </r>
       <r>   -0.8637    1.0000 </r>
       <r>   -0.8568    1.0000 </r>
       <r>   -0.8509    1.0000 </r>
       <r>   -0.6795    1.0000 </r>
       <r>   -0.6524    1.0000 </r>
       <r>   -0.6440    1.0000 </r>
       <r>   -0.6318    1.0000 </r>
       <r>   -0.6229    1.0000 </r>
       <r>   -0.6147    1.0000 </r>
       <r>   -0.5505    1.0000 </r>
       <r>   -0.5344    1.0000 </r>
       <r>   -0.4548    1.0000 </r>
       <r>   -0.4510    1.0000 </r>
       <r>   -0.4169    1.0000 </r>
       <r>   -0.4120    1.0000 </r>
       <r>   -0.3581    1.0000 </r>
       <r>   -0.3394    1.0000 </r>
       <r>   -0.3333    1.0000 </r>
       <r>   -0.3296    1.0000 </r>
       <r>   -0.3239    1.0000 </r>
       <r>   -0.3207    1.0000 </r>
       <r>   -0.0087    1.0000 </r>
       <r>    0.0150    1.0000 </r>
       <r>    0.0245    1.0000 </r>
       <r>    0.0536    1.0000 </r>
       <r>    0.0591    1.0000 </r>
       <r>    0.0835    1.0000 </r>
       <r>    0.2423    1.0000 </r>
       <r>    0.2497    1.0000 </r>
       <r>    0.2569    1.0000 </r>
       <r>    0.2710    1.0000 </r>
       <r>    0.2863    1.0000 </r>
       <r>    0.2994    1.0000 </r>
       <r>    0.5316    1.0000 </r>
       <r>    0.5361    1.0000 </r>
       <r>    0.5667    1.0000 </r>
       <r>    0.5746    1.0000 </r>
       <r>    0.6730    1.0000 </r>
       <r>    0.6835    1.0000 </r>
       <r>    0.6921    1.0000 </r>
       <r>    0.6956    1.0000 </r>
       <r>    0.7173    1.0000 </r>
       <r>    0.7208    1.0000 </r>
       <r>    0.7273    1.0000 </r>
       <r>    0.7456    1.0000 </r>
       <r>    0.7558    1.0000 </r>
       <r>    0.7590    1.0000 </r>
       <r>    0.7767    1.0000 </r>
       <r>    0.7828    1.0000 </r>
       <r>    0.8084    1.0000 </r>
       <r>    0.8179    1.0000 </r>
       <r>    1.1025    1.0000 </r>
       <r>    1.1146    1.0000 </r>
       <r>    1.1277    1.0000 </r>
       <r>    1.1316    1.0000 </r>
       <r>    1.1435    1.0000 </r>
       <r>    1.1629    1.0000 </r>
       <r>    1.1772    1.0000 </r>
       <r>    1.1798    1.0000 </r>
       <r>    1.1893    1.0000 </r>
       <r>    1.1944    1.0000 </r>
       <r>    1.2010    1.0000 </r>
       <r>    1.2099    1.0000 </r>
       <r>    1.2626    1.0000 </r>
       <r>    1.2822    1.0000 </r>
       <r>    1.3754    1.0000 </r>
       <r>    1.3772    1.0000 </r>
       <r>    1.3806    1.0000 </r>
       <r>    1.3862    1.0000 </r>
       <r>    1.3918    1.0000 </r>
       <r>    1.3970    1.0000 </r>
       <r>    1.4110    1.0000 </r>
       <r>    1.4137    1.0000 </r>
       <r>    1.4351    1.0000 </r>
       <r>    1.4454    1.0000 </r>
       <r>    1.4489    1.0000 </r>
       <r>    1.4553    1.0000 </r>
       <r>    1.4609    1.0000 </r>
       <r>    1.4695    1.0000 </r>
       <r>    1.4742    1.0000 </r>
       <r>    1.4793    1.0000 </r>
       <r>    1.5904    1.0000 </r>
       <r>    1.6040    1.0000 </r>
       <r>    1.6162    1.0000 </r>
       <r>    1.6189    1.0000 </r>
       <r>    1.6292    1.0000 </r>
       <r>    1.6385    1.0000 </r>
       <r>    1.7767    1.0000 </r>
       <r>    1.7852    1.0000 </r>
       <r>    2.0061    1.0000 </r>
       <r>    2.0203    1.0000 </r>
       <r>    2.0220    1.0000 </r>
       <r>    2.0305    1.0000 </r>
       <r>    2.0354    1.0000 </r>
       <r>    2.0474    1.0000 </r>
       <r>    2.0601    1.0000 </r>
       <r>    2.0654    1.0000 </r>
       <r>    2.0815    1.0000 </r>
       <r>    2.0948    1.0000 </r>
       <r>    5.7917    0.0000 </r>
       <r>    5.8077    0.0000 </r>
       <r>    5.8359    0.0000 </r>
       <r>    5.8532    0.0000 </r>
       <r>    5.8887    0.0000 </r>
       <r>    5.8948    0.0000 </r>
       <r>    5.9028    0.0000 </r>
       <r>    5.9282    0.0000 </r>
       <r>    5.9647    0.0000 </r>
       <r>    6.0081    0.0000 </r>
       <r>    6.0271    0.0000 </r>
       <r>    6.0533    0.0000 </r>
       <r>    6.0794    0.0000 </r>
       <r>    6.1004    0.0000 </r>
       <r>    6.1108    0.0000 </r>
       <r>    6.1419    0.0000 </r>
       <r>    6.1758    0.0000 </r>
       <r>    6.2521    0.0000 </r>
       <r>    6.4648    0.0000 </r>
       <r>    6.4676    0.0000 </r>
       <r>    6.4775    0.0000 </r>
       <r>    6.5332    0.0000 </r>
       <r>    6.5955    0.0000 </r>
       <r>    6.6228    0.0000 </r>
       <r>    6.8575    0.0000 </r>
       <r>    6.9132    0.0000 </r>
       <r>    6.9185    0.0000 </r>
       <r>    6.9390    0.0000 </r>
       <r>    6.9798    0.0000 </r>
       <r>    7.0319    0.0000 </r>
       <r>    7.0645    0.0000 </r>
       <r>    7.0809    0.0000 </r>
       <r>    7.1709    0.0000 </r>
       <r>    7.2172    0.0000 </r>
       <r>    7.2260    0.0000 </r>
       <r>    7.3074    0.0000 </r>
       <r>    7.3762    0.0000 </r>
       <r>    7.4428    0.0000 </r>
       <r>    7.4546    0.0000 </r>
       <r>    7.4911    0.0000 </r>
       <r>    7.5212    0.0000 </r>
       <r>    7.5585    0.0000 </r>
       <r>    7.6011    0.0000 </r>
       <r>    7.6312    0.0000 </r>
       <r>    7.6560    0.0000 </r>
       <r>    7.6898    0.0000 </r>
       <r>    7.7084    0.0000 </r>
       <r>    7.7801    0.0000 </r>
       <r>    9.0248    0.0000 </r>
       <r>    9.0530    0.0000 </r>
       <r>    9.3839    0.0000 </r>
       <r>    9.4316    0.0000 </r>
       <r>    9.4804    0.0000 </r>
       <r>    9.5705    0.0000 </r>
       <r>    9.6032    0.0000 </r>
       <r>    9.6939    0.0000 </r>
      </set>
     </set>
    </set>
   </array>
  </eigenvalues>
  <separator name="orbital magnetization" >
   <v name="MAGDIPOLOUT">      0.00000000      0.00000000      0.00000000</v>
  </separator>
 </calculation>
 <structure name="finalpos" >
  <crystal>
   <varray name="basis" >
    <v>       5.32278163      -3.07156573       9.40578880 </v>
    <v>       0.00212616       6.14434098       9.40500886 </v>
    <v>      -5.31936492      -3.07204821       9.40376192 </v>
   </varray>
   <i name="volume">    922.42417529 </i>
   <varray name="rec_basis" >
    <v>       0.09396172      -0.05425776       0.03542563 </v>
    <v>      -0.00001167       0.10850431       0.03543990 </v>
    <v>      -0.09397030      -0.05424924       0.03546255 </v>
   </varray>
  </crystal>
  <varray name="positions" >
   <v>       0.13917676       0.14072503       0.14150706 </v>
   <v>       0.39424359       0.39137336       0.39354301 </v>
   <v>       0.14296493       0.14203880       0.64282920 </v>
   <v>       0.39548299       0.39362069       0.89262811 </v>
   <v>       0.14198301       0.63939456       0.14222041 </v>
   <v>       0.39207690       0.89191613       0.39300624 </v>
   <v>       0.14289537       0.63918172       0.64061165 </v>
   <v>       0.39316095       0.89427126       0.89109907 </v>
   <v>       0.64025411       0.14468818       0.13908279 </v>
   <v>       0.89403018       0.39382580       0.39399812 </v>
   <v>       0.64255701       0.14225569       0.63879265 </v>
   <v>       0.89414000       0.39389108       0.89142004 </v>
   <v>       0.64047026       0.64280339       0.14280765 </v>
   <v>       0.89043637       0.89286074       0.39515012 </v>
   <v>       0.64401602       0.64140786       0.64365452 </v>
   <v>       0.89239486       0.89414424       0.89456859 </v>
   <v>       0.99963673       0.00144666       0.99750170 </v>
   <v>       0.99963586       0.00024780       0.49774908 </v>
   <v>       0.25201770       0.24882856       0.74974219 </v>
   <v>       0.99795879       0.49793820       0.00140854 </v>
   <v>       0.00122327       0.49731331       0.50083518 </v>
   <v>       0.49985505       0.99813534       0.00105397 </v>
   <v>       0.49933893       0.50041882       0.99821637 </v>
   <v>       0.75060142       0.74971490       0.25043096 </v>
   <v>       0.49996220       0.50128616       0.49696820 </v>
   <v>       0.74949201       0.75121250       0.74848962 </v>
   <v>       0.06781383       0.16718336       0.36136920 </v>
   <v>       0.36185348       0.06638664       0.16843994 </v>
   <v>       0.16692989       0.36016661       0.06803302 </v>
   <v>       0.41870504       0.31561101       0.11038633 </v>
   <v>       0.11037055       0.41904381       0.31505910 </v>
   <v>       0.31716514       0.11128911       0.41809746 </v>
   <v>       0.06537846       0.16817107       0.86110274 </v>
   <v>       0.36046688       0.06601750       0.66914954 </v>
   <v>       0.16907439       0.36102897       0.56530846 </v>
   <v>       0.41940691       0.31425973       0.61221432 </v>
   <v>       0.11199439       0.41775714       0.81465303 </v>
   <v>       0.31462262       0.11138346       0.91955366 </v>
   <v>       0.06706208       0.66730519       0.36138714 </v>
   <v>       0.36064193       0.56795557       0.16680091 </v>
   <v>       0.16665027       0.86225782       0.06725208 </v>
   <v>       0.41800432       0.81657599       0.11081593 </v>
   <v>       0.11088058       0.91847814       0.31632420 </v>
   <v>       0.31580154       0.61010686       0.41867384 </v>
   <v>       0.06792686       0.66558161       0.86165161 </v>
   <v>       0.36121319       0.56792427       0.66627131 </v>
   <v>       0.16653556       0.86152418       0.56738771 </v>
   <v>       0.41682083       0.81802790       0.61013359 </v>
   <v>       0.10980996       0.91717257       0.81754411 </v>
   <v>       0.31618673       0.61029441       0.91802226 </v>
   <v>       0.56759485       0.16736369       0.36150852 </v>
   <v>       0.86116782       0.06739223       0.16699668 </v>
   <v>       0.66654039       0.36150582       0.06754977 </v>
   <v>       0.91761312       0.31669293       0.10995573 </v>
   <v>       0.61045583       0.41823325       0.31676782 </v>
   <v>       0.81662177       0.11070968       0.41811315 </v>
   <v>       0.56698606       0.16685484       0.86162984 </v>
   <v>       0.86089294       0.06777451       0.66625422 </v>
   <v>       0.66671142       0.36208339       0.56718547 </v>
   <v>       0.91835633       0.31623099       0.61019309 </v>
   <v>       0.61102716       0.41783789       0.81635720 </v>
   <v>       0.81590915       0.10991808       0.91844880 </v>
   <v>       0.56545314       0.66866313       0.36061714 </v>
   <v>       0.86132330       0.56642935       0.16709930 </v>
   <v>       0.66767626       0.86146687       0.06586111 </v>
   <v>       0.91803675       0.81462655       0.11237816 </v>
   <v>       0.61109207       0.91856670       0.31611164 </v>
   <v>       0.81481745       0.61155092       0.41821713 </v>
   <v>       0.56623838       0.66709360       0.86157722 </v>
   <v>       0.86252509       0.56506595       0.66737650 </v>
   <v>       0.66770722       0.85976467       0.56687546 </v>
   <v>       0.91822005       0.81563815       0.61117413 </v>
   <v>       0.61099787       0.91859879       0.81528133 </v>
   <v>       0.81614884       0.61202443       0.91675792 </v>
   <v>       0.24896358       0.24948916       0.24786446 </v>
   <v>       0.24818616       0.74843593       0.24855633 </v>
   <v>       0.24728996       0.74790082       0.74934764 </v>
   <v>       0.74712980       0.24802555       0.24927221 </v>
   <v>       0.49699835       0.99776997       0.50017081 </v>
   <v>       0.74865340       0.24853651       0.74820909 </v>
  </varray>
 </structure>
</modeling>
