Li(NbTa)O_3                             
           1
     5.299287   -3.057903    9.488143
     0.002544    6.117439    9.487255
    -5.296604   -3.059292    9.486204
   Li   Nb   O    Ta
  16  10  48   6
Li(NbTa)O_3                             
           1
     5.299287   -3.057903    9.488143
     0.002544    6.117439    9.487255
    -5.296604   -3.059292    9.486204
   Li   Nb   O    Ta
  16  10  48   6
Direct configuration=     1
   0.13834752  0.13936271  0.13984335
   0.39146324  0.38999630  0.39085144
   0.14028321  0.14032414  0.64092124
   0.39173469  0.39088444  0.89059988
   0.14005761  0.63914415  0.13990376
   0.38998511  0.89022976  0.39046082
   0.14027342  0.63856692  0.63942290
   0.39066873  0.89122478  0.89017412
   0.63968950  0.14081636  0.13851063
   0.89081879  0.39199278  0.39127564
   0.64044608  0.13979598  0.63895884
   0.89104424  0.39188824  0.88993991
   0.63987068  0.64050964  0.14005521
   0.88952244  0.89019616  0.39154151
   0.64095434  0.64008558  0.64144699
   0.89103108  0.89076076  0.89134632
   0.99959237  0.00150112  0.99675172
   0.99938324  0.00003493  0.49763958
   0.25168038  0.24891337  0.74959517
   0.99749990  0.49794372  0.00086033
   0.00052440  0.49715140  0.50088067
   0.49988249  0.99738472  0.00090131
   0.49954620  0.50003968  0.99785757
   0.75097315  0.74942469  0.24984287
   0.49985523  0.50129758  0.49655071
   0.74940214  0.75095878  0.74802348
   0.05623360  0.18120304  0.36059596
   0.36055215  0.05618073  0.18135900
   0.18067803  0.36043515  0.05635112
   0.43164615  0.30579781  0.11007695
   0.10933811  0.43208088  0.30572184
   0.30616879  0.11038237  0.43144631
   0.05540035  0.18155956  0.86034038
   0.35943918  0.05639020  0.68203455
   0.18159346  0.36067916  0.55556672
   0.43176800  0.30520898  0.61104129
   0.11066152  0.43074915  0.80539644
   0.30515946  0.11079423  0.93190663
   0.05604537  0.68076856  0.36081137
   0.36061507  0.55618152  0.18081868
   0.18040413  0.86090372  0.05629587
   0.43096027  0.80670950  0.10983535
   0.11018018  0.93120277  0.30647725
   0.30631393  0.60963452  0.43142758
   0.05642617  0.67983109  0.86072292
   0.36082901  0.55621291  0.68039936
   0.18050111  0.86073339  0.55625759
   0.43105925  0.80638098  0.60992686
   0.10974163  0.93076687  0.80662904
   0.30592914  0.60973059  0.93157562
   0.55668960  0.18089021  0.36049958
   0.86099568  0.05588109  0.18065345
   0.68094161  0.36072792  0.05606070
   0.93094987  0.30643726  0.10970186
   0.61015919  0.43137998  0.30635721
   0.80662739  0.10979363  0.43135599
   0.55625493  0.18016866  0.86082204
   0.86060460  0.05601788  0.68054061
   0.68056339  0.36084158  0.55626059
   0.93128773  0.30623948  0.60979445
   0.61008613  0.43101265  0.80636497
   0.80623116  0.10929440  0.93147945
   0.55554077  0.68183433  0.36007734
   0.86007458  0.55634829  0.18046819
   0.68107200  0.86046774  0.05575260
   0.93136114  0.80492582  0.11095065
   0.61067752  0.93165297  0.30547765
   0.80503784  0.61074302  0.43111591
   0.55556968  0.68082022  0.86090541
   0.86059508  0.55581627  0.68050717
   0.68097931  0.85972506  0.55655493
   0.93138973  0.80539064  0.61084254
   0.61024363  0.93134011  0.80571432
   0.80584636  0.61083297  0.93009391
   0.24862253  0.24992729  0.24762435
   0.24806756  0.74806531  0.24849505
   0.24752603  0.74745881  0.74934160
   0.74730972  0.24776208  0.24918815
   0.49682629  0.99767190  0.50015434
   0.74834988  0.24827406  0.74832874
Li(NbTa)O_3                             
           1
     5.296160   -3.056106    9.499422
     0.002528    6.113817    9.498533
    -5.293434   -3.057451    9.497470
   Li   Nb   O    Ta
  16  10  48   6
Direct configuration=     2
   0.13833912  0.13935584  0.13983836
   0.39146699  0.38999371  0.39084755
   0.14028604  0.14031726  0.64091515
   0.39174109  0.39088905  0.89060065
   0.14005753  0.63913133  0.13990080
   0.38998230  0.89022845  0.39046393
   0.14027458  0.63856009  0.63941438
   0.39066931  0.89122586  0.89016689
   0.63967830  0.14082096  0.13850386
   0.89082585  0.39198873  0.39128212
   0.64044476  0.13979574  0.63894708
   0.89104543  0.39188550  0.88994258
   0.63986162  0.64050358  0.14005819
   0.88951455  0.89019904  0.39154317
   0.64095210  0.64008526  0.64144607
   0.89103125  0.89077154  0.89134403
   0.99992905  0.00199708  0.99689051
   0.99969371  0.00039499  0.49785596
   0.25213918  0.24921824  0.74991753
   0.99768956  0.49819920  0.00132622
   0.00091924  0.49730871  0.50134858
   0.50028894  0.99756020  0.00129739
   0.49988075  0.50044716  0.99803956
   0.75145478  0.74969832  0.25021659
   0.50019130  0.50175005  0.49668687
   0.74974948  0.75136836  0.74828446
   0.05675655  0.17963158  0.36142149
   0.36138563  0.05669391  0.17982541
   0.17917161  0.36119465  0.05695930
   0.42981353  0.30608300  0.11114768
   0.11041302  0.43028067  0.30600358
   0.30672834  0.11121596  0.42983679
   0.05564529  0.17977170  0.86142102
   0.36047828  0.05668568  0.68026578
   0.17984122  0.36172387  0.55584456
   0.43003385  0.30546972  0.61209342
   0.11165453  0.42909944  0.80572859
   0.30547678  0.11180646  0.93019129
   0.05666361  0.67930004  0.36155755
   0.36136884  0.55678907  0.17932596
   0.17893491  0.86168208  0.05684963
   0.42927297  0.80706370  0.11080580
   0.11114856  0.92950053  0.30683241
   0.30665961  0.61062695  0.42970289
   0.05703602  0.67840577  0.86145012
   0.36157076  0.55683041  0.67891597
   0.17899598  0.86152452  0.55679929
   0.42948261  0.80697508  0.61072577
   0.11072715  0.92903609  0.80697566
   0.30623967  0.61075076  0.92980653
   0.55728105  0.17934876  0.36128151
   0.86175331  0.05648841  0.17914051
   0.67943627  0.36150631  0.05663116
   0.92930147  0.30683611  0.11063041
   0.61111835  0.42966852  0.30672748
   0.80697113  0.11077112  0.42964201
   0.55683275  0.17867594  0.86160222
   0.86138201  0.05659991  0.67902483
   0.67909037  0.36162299  0.55681304
   0.92956445  0.30657636  0.61079259
   0.61108632  0.42927550  0.80669950
   0.80658092  0.11029542  0.92975031
   0.55580789  0.68008119  0.36112952
   0.86108740  0.55663234  0.17878401
   0.67932379  0.86151390  0.05603293
   0.92959738  0.80517425  0.11202908
   0.61151955  0.93008687  0.30601137
   0.80530596  0.61182245  0.42933872
   0.55585909  0.67909973  0.86191806
   0.86162523  0.55609483  0.67883365
   0.67924798  0.86071119  0.55691588
   0.92969451  0.80573145  0.61181669
   0.61123858  0.92967715  0.80603266
   0.80622117  0.61175927  0.92850476
   0.24893892  0.25030128  0.24782389
   0.24832930  0.74833163  0.24878390
   0.24772808  0.74770165  0.74971390
   0.74749429  0.24800743  0.24952655
   0.49700692  0.99787597  0.50055404
   0.74862459  0.24858421  0.74860423
Li(NbTa)O_3                             
           1
     5.286973   -3.050284    9.534852
     0.003330    6.102621    9.533655
    -5.283110   -3.051899    9.532169
   Li   Nb   O    Ta
  16  10  48   6
Direct configuration=     3
   0.13827437  0.13931725  0.13983784
   0.39154631  0.38997316  0.39077301
   0.14033822  0.14023738  0.64083065
   0.39179537  0.39092049  0.89059687
   0.14010016  0.63905770  0.13990334
   0.38993873  0.89027936  0.39052442
   0.14032371  0.63852910  0.63936948
   0.39064471  0.89123767  0.89015520
   0.63960685  0.14086244  0.13850455
   0.89088513  0.39191656  0.39136662
   0.64047339  0.13982079  0.63886334
   0.89102961  0.39188376  0.89001722
   0.63977679  0.64044934  0.14007426
   0.88947259  0.89024217  0.39152733
   0.64089783  0.64011924  0.64144048
   0.89107489  0.89086487  0.89128437
   1.00124121  0.00363573  0.99794303
   1.00110442  0.00198503  0.49880252
   0.25390758  0.25039886  0.75121571
   0.99889482  0.49915604  0.00300348
   0.00254557  0.49825451  0.50280095
   0.50161898  0.99871181  0.00291578
   0.50117292  0.50181110  0.99924627
   0.75294089  0.75117189  0.25176654
   0.50150046  0.50331969  0.49768991
   0.75111251  0.75300867  0.74930645
   0.05886811  0.17331682  0.36453618
   0.36454247  0.05874034  0.17368834
   0.17305955  0.36405046  0.05944199
   0.42306676  0.30755948  0.11471692
   0.11404538  0.42364803  0.30740924
   0.30912818  0.11416817  0.42362307
   0.05681781  0.17306408  0.86517556
   0.36400144  0.05818417  0.67368454
   0.17322425  0.36536787  0.55718263
   0.42352675  0.30668569  0.61579545
   0.11521298  0.42277312  0.80716499
   0.30691270  0.11538028  0.92368018
   0.05911395  0.67333492  0.36441713
   0.36426823  0.55922547  0.17321044
   0.17296022  0.86469970  0.05904262
   0.42296581  0.80879224  0.11409477
   0.11442648  0.92312100  0.30858894
   0.30834910  0.61398989  0.42326732
   0.05945468  0.67255728  0.86427691
   0.36442503  0.55932558  0.67282889
   0.17285375  0.86457460  0.55894472
   0.42334284  0.80950418  0.61356997
   0.11405801  0.92254948  0.80872718
   0.30780031  0.61422098  0.92322846
   0.55978581  0.17328910  0.36410552
   0.86465959  0.05893557  0.17297665
   0.67332236  0.36452375  0.05886908
   0.92305240  0.30872329  0.11381550
   0.61436000  0.42326525  0.30853829
   0.80865739  0.11410766  0.42322593
   0.55914930  0.17260544  0.86457741
   0.86435954  0.05890882  0.67284107
   0.67309776  0.36465426  0.55899684
   0.92314183  0.30825079  0.61417863
   0.61445739  0.42283773  0.80837426
   0.80829219  0.11369299  0.92327575
   0.55706156  0.67341028  0.36482515
   0.86468279  0.55796169  0.17233702
   0.67272104  0.86515430  0.05734044
   0.92300691  0.80632433  0.11580732
   0.61468894  0.92385789  0.30814742
   0.80657938  0.61555580  0.42271351
   0.55717825  0.67248514  0.86553529
   0.86530599  0.55733028  0.67245963
   0.67271385  0.86405498  0.55868113
   0.92322755  0.80725018  0.61529328
   0.61478397  0.92331222  0.80747124
   0.80787022  0.61512320  0.92232467
   0.25025108  0.25139978  0.24887319
   0.24932853  0.74940626  0.24985202
   0.24871641  0.74876352  0.75085968
   0.74815861  0.24890194  0.25088043
   0.49775123  0.99887184  0.50176475
   0.74965049  0.24973126  0.74965725
Li(NbTa)O_3                             
           1
     5.292155   -3.053027    9.516807
     0.003571    6.108477    9.515599
    -5.288031   -3.054770    9.513946
   Li   Nb   O    Ta
  16  10  48   6
Direct configuration=     4
   0.13826733  0.13932487  0.13984811
   0.39156320  0.38998389  0.39077184
   0.14033884  0.14023731  0.64084207
   0.39180358  0.39093176  0.89059820
   0.14011474  0.63907060  0.13990371
   0.38993824  0.89028657  0.39053884
   0.14032952  0.63853689  0.63938007
   0.39064998  0.89123824  0.89017072
   0.63962412  0.14087289  0.13850729
   0.89088381  0.39192232  0.39137593
   0.64048712  0.13982411  0.63886751
   0.89102849  0.39190112  0.89003254
   0.63978416  0.64044860  0.14006919
   0.88948296  0.89025222  0.39153468
   0.64089814  0.64012543  0.64145658
   0.89109379  0.89086532  0.89128396
   1.00068102  0.00272987  0.99783324
   1.00059463  0.00136871  0.49850021
   0.25306438  0.24991715  0.75068690
   0.99865309  0.49879087  0.00218098
   0.00184629  0.49810780  0.50198154
   0.50092285  0.99850777  0.00220038
   0.50063317  0.50112272  0.99901178
   0.75206345  0.75073663  0.25112287
   0.50093119  0.50248503  0.49758258
   0.75055451  0.75227369  0.74894962
   0.05858769  0.17523993  0.36333198
   0.36334121  0.05844597  0.17557759
   0.17484958  0.36295716  0.05905147
   0.42531580  0.30749248  0.11323213
   0.11257379  0.42582494  0.30734829
   0.30876664  0.11300968  0.42551199
   0.05683817  0.17535699  0.86360819
   0.36256809  0.05811884  0.67582067
   0.17549526  0.36383088  0.55716186
   0.42578681  0.30667587  0.61425666
   0.11385247  0.42478999  0.80702993
   0.30683923  0.11389893  0.92589102
   0.05868128  0.67505358  0.36336901
   0.36320681  0.55880056  0.17496722
   0.17467984  0.86363222  0.05867121
   0.42495005  0.80864141  0.11279149
   0.11312091  0.92513957  0.30843621
   0.30820338  0.61264671  0.42531501
   0.05902354  0.67416593  0.86330032
   0.36338744  0.55889564  0.67455421
   0.17461649  0.86349225  0.55858753
   0.42514919  0.80910501  0.61246845
   0.11272226  0.92460030  0.80858307
   0.30770021  0.61283231  0.92533849
   0.55935700  0.17503640  0.36305527
   0.86358859  0.05851671  0.17475423
   0.67508439  0.36343891  0.05849801
   0.92492522  0.30848994  0.11260799
   0.61306257  0.42527571  0.30838020
   0.80851638  0.11278422  0.42525801
   0.55875131  0.17435290  0.86349922
   0.86328467  0.05851871  0.67460087
   0.67481811  0.36358535  0.55862893
   0.92520649  0.30811892  0.61281177
   0.61310025  0.42489996  0.80825355
   0.80814010  0.11233096  0.92533975
   0.55705497  0.67565366  0.36330015
   0.86326484  0.55791409  0.17442595
   0.67492013  0.86366306  0.05731944
   0.92527977  0.80632522  0.11424713
   0.61344172  0.92582651  0.30783247
   0.80656395  0.61398164  0.42501285
   0.55711184  0.67460055  0.86411784
   0.86389948  0.55726095  0.67450185
   0.67472413  0.86274264  0.55850165
   0.92536371  0.80715192  0.61387677
   0.61337032  0.92540252  0.80738429
   0.80768158  0.61387415  0.92421741
   0.24971645  0.25072366  0.24857396
   0.24891932  0.74898469  0.24937706
   0.24840404  0.74839537  0.75023442
   0.74789885  0.24853716  0.25030480
   0.49751353  0.99855116  0.50109125
   0.74920272  0.24924084  0.74921199
Li(NbTa)O_3                             
           1
     5.292853   -3.053343    9.514567
     0.003658    6.109229    9.513348
    -5.288606   -3.055115    9.511628
   Li   Nb   O    Ta
  16  10  48   6
Direct configuration=     5
   0.13823149  0.13931805  0.13985727
   0.39160367  0.38998544  0.39075580
   0.14035211  0.14021781  0.64083233
   0.39183292  0.39096056  0.89060669
   0.14014217  0.63904882  0.13990153
   0.38992766  0.89030163  0.39057401
   0.14034748  0.63853425  0.63936682
   0.39065507  0.89124513  0.89017150
   0.63961283  0.14090412  0.13850186
   0.89090637  0.39191275  0.39141127
   0.64050857  0.13983011  0.63883586
   0.89102789  0.39191369  0.89006758
   0.63976200  0.64042923  0.14007634
   0.88947509  0.89027820  0.39154865
   0.64088361  0.64013915  0.64147541
   0.89112508  0.89090023  0.89127064
   1.00073427  0.00271906  0.99798610
   1.00066327  0.00144485  0.49857735
   0.25308635  0.24995666  0.75071031
   0.99880575  0.49885177  0.00222725
   0.00191409  0.49822914  0.50195396
   0.50092587  0.99865624  0.00222756
   0.50068327  0.50113012  0.99916143
   0.75201483  0.75083307  0.25119757
   0.50098336  0.50246671  0.49773393
   0.75061301  0.75232572  0.74902701
   0.05908277  0.17459045  0.36344640
   0.36346945  0.05890145  0.17497029
   0.17418159  0.36306036  0.05956493
   0.42471760  0.30789983  0.11333593
   0.11269916  0.42520925  0.30774582
   0.30928063  0.11310284  0.42486320
   0.05721925  0.17477054  0.86373363
   0.36267013  0.05855806  0.67520859
   0.17494182  0.36393003  0.55755985
   0.42526489  0.30704617  0.61438051
   0.11401504  0.42419562  0.80739516
   0.30724287  0.11399841  0.92535609
   0.05916827  0.67439215  0.36349198
   0.36333225  0.55929151  0.17428713
   0.17400788  0.86379591  0.05912609
   0.42432121  0.80909492  0.11290611
   0.11322833  0.92452435  0.30888649
   0.30863612  0.61276022  0.42469036
   0.05950574  0.67345421  0.86346708
   0.36352155  0.55939421  0.67385962
   0.17393317  0.86365810  0.55903130
   0.42446772  0.80963218  0.61256086
   0.11283305  0.92395766  0.80903340
   0.30812203  0.61295745  0.92469377
   0.55986486  0.17435758  0.36316719
   0.86371974  0.05900141  0.17406793
   0.67439899  0.36358859  0.05896752
   0.92425843  0.30893321  0.11274118
   0.61315903  0.42463971  0.30885363
   0.80896716  0.11289480  0.42463664
   0.55920735  0.17367274  0.86365370
   0.86343631  0.05899666  0.67388528
   0.67413685  0.36375434  0.55908283
   0.92457382  0.30855418  0.61292418
   0.61320831  0.42427043  0.80869790
   0.80857423  0.11243671  0.92471874
   0.55744450  0.67506981  0.36342230
   0.86342036  0.55830586  0.17380230
   0.67432458  0.86378583  0.05772428
   0.92472879  0.80668578  0.11438144
   0.61355550  0.92523538  0.30827956
   0.80693837  0.61410733  0.42444962
   0.55748759  0.67396433  0.86426981
   0.86407376  0.55761341  0.67389299
   0.67406426  0.86285494  0.55893754
   0.92477932  0.80756156  0.61399418
   0.61350444  0.92482658  0.80777715
   0.80808342  0.61404659  0.92357421
   0.24977382  0.25070642  0.24867756
   0.24898974  0.74905043  0.24943053
   0.24850348  0.74849393  0.75025341
   0.74793939  0.24860788  0.25038406
   0.49757605  0.99864323  0.50110187
   0.74928213  0.24931996  0.74925426
Li(NbTa)O_3                             
           1
     5.294936   -3.054558    9.506978
     0.003590    6.111678    9.505806
    -5.290735   -3.056278    9.504086
   Li   Nb   O    Ta
  16  10  48   6
Direct configuration=     6
   0.13816985  0.13930850  0.13987566
   0.39167481  0.38999273  0.39073910
   0.14037353  0.14019161  0.64082770
   0.39188931  0.39101715  0.89062850
   0.14019016  0.63901453  0.13989659
   0.38991540  0.89032446  0.39063629
   0.14037811  0.63853359  0.63934516
   0.39067248  0.89126026  0.89017414
   0.63959880  0.14096377  0.13849018
   0.89094868  0.39190676  0.39147086
   0.64054729  0.13983901  0.63878374
   0.89103451  0.39193830  0.89012825
   0.63972896  0.64040177  0.14009231
   0.88946520  0.89032794  0.39158343
   0.64086564  0.64016311  0.64151629
   0.89118011  0.89096168  0.89125937
   1.00071289  0.00259471  0.99812597
   1.00066258  0.00143428  0.49860955
   0.25300655  0.24992391  0.75065176
   0.99894610  0.49887378  0.00218439
   0.00191050  0.49833218  0.50181439
   0.50083549  0.99878869  0.00215324
   0.50065769  0.50104240  0.99928666
   0.75184104  0.75086811  0.25119146
   0.50096173  0.50233684  0.49787335
   0.75060093  0.75229495  0.74907099
   0.05987408  0.17389297  0.36338756
   0.36344033  0.05961882  0.17432754
   0.17344279  0.36299443  0.06036192
   0.42410872  0.30856493  0.11325143
   0.11264140  0.42456666  0.30841042
   0.31006786  0.11303345  0.42415041
   0.05786945  0.17417622  0.86367391
   0.36258133  0.05928576  0.67456625
   0.17439842  0.36383176  0.55822002
   0.42475487  0.30765646  0.61433855
   0.11403439  0.42356593  0.80799174
   0.30789976  0.11391710  0.92482221
   0.05991271  0.67365018  0.36346551
   0.36329498  0.56005208  0.17353565
   0.17325294  0.86382712  0.05983839
   0.42362989  0.80981775  0.11285923
   0.11317207  0.92386717  0.30959401
   0.30932779  0.61270495  0.42401730
   0.06026405  0.67260401  0.86352063
   0.36351183  0.56016594  0.67306670
   0.17317440  0.86369062  0.55973005
   0.42368490  0.81044307  0.61249105
   0.11276780  0.92326191  0.80975506
   0.30881277  0.61290810  0.92399571
   0.56064676  0.17358006  0.36313017
   0.86370024  0.05974528  0.17330367
   0.67362764  0.36359310  0.05970540
   0.92350410  0.30963269  0.11272334
   0.61307840  0.42395174  0.30960541
   0.80968652  0.11283637  0.42397237
   0.55991663  0.17290677  0.86367012
   0.86343825  0.05975251  0.67306890
   0.67336495  0.36379198  0.55979793
   0.92389819  0.30925242  0.61285557
   0.61314252  0.42359086  0.80941166
   0.80926026  0.11236840  0.92405207
   0.55810277  0.67448230  0.36336004
   0.86341361  0.55895743  0.17314583
   0.67370800  0.86372937  0.05840580
   0.92416874  0.80729224  0.11435271
   0.61350205  0.92461912  0.30897923
   0.80756073  0.61405395  0.42388679
   0.55812078  0.67329555  0.86425155
   0.86410063  0.55820662  0.67324467
   0.67334864  0.86278448  0.55963789
   0.92417859  0.80823403  0.61393318
   0.61347231  0.92423910  0.80841632
   0.80872587  0.61408793  0.92286361
   0.24977388  0.25059015  0.24875323
   0.24903422  0.74908599  0.24944501
   0.24858081  0.74856979  0.75020364
   0.74796018  0.24865188  0.25041340
   0.49761705  0.99871503  0.50102913
   0.74933402  0.24935846  0.74925518
Li(NbTa)O_3                             
           1
     5.299193   -3.057216    9.491020
     0.003241    6.116773    9.489974
    -5.295304   -3.058713    9.488381
   Li   Nb   O    Ta
  16  10  48   6
Direct configuration=     7
   0.13806427  0.13929572  0.13991196
   0.39180344  0.39001417  0.39072682
   0.14041436  0.14015806  0.64083625
   0.39200178  0.39112985  0.89068048
   0.14027673  0.63895752  0.13989128
   0.38990525  0.89036335  0.39075110
   0.14043521  0.63853688  0.63931025
   0.39071621  0.89129471  0.89018154
   0.63957959  0.14107981  0.13846986
   0.89103456  0.39191242  0.39157838
   0.64061908  0.13985675  0.63869646
   0.89106102  0.39198620  0.89023747
   0.63967762  0.64036442  0.14013025
   0.88945271  0.89042479  0.39166206
   0.64084818  0.64020930  0.64160012
   0.89127797  0.89107897  0.89125999
   1.00061045  0.00236207  0.99823609
   1.00058746  0.00133023  0.49857494
   0.25283350  0.24980458  0.75050055
   0.99906725  0.49884116  0.00206678
   0.00184959  0.49839382  0.50156095
   0.50064616  0.99889671  0.00197820
   0.50053588  0.50085746  0.99937827
   0.75153275  0.75082977  0.25110742
   0.50086285  0.50210141  0.49797743
   0.75050286  0.75218742  0.74907299
   0.06126041  0.17287504  0.36314518
   0.36325673  0.06086280  0.17340143
   0.17237156  0.36272961  0.06173436
   0.42323302  0.30973929  0.11296444
   0.11239938  0.42363147  0.30958554
   0.31142093  0.11277733  0.42311497
   0.05903567  0.17329793  0.86343685
   0.36229182  0.06055310  0.67364152
   0.17361459  0.36354497  0.55937218
   0.42399918  0.30873941  0.61415482
   0.11393192  0.42264122  0.80904563
   0.30904905  0.11366700  0.92403146
   0.06120008  0.67256439  0.36327046
   0.36306484  0.56137856  0.17244737
   0.17215560  0.86371840  0.06109432
   0.42262551  0.81107330  0.11263768
   0.11294147  0.92291582  0.31082104
   0.31052784  0.61246327  0.42305212
   0.06158891  0.67135612  0.86343725
   0.36333154  0.56151254  0.67190990
   0.17207343  0.86357220  0.56097351
   0.42253267  0.81184178  0.61222226
   0.11249782  0.92225883  0.81101634
   0.31002877  0.61266904  0.92298674
   0.56198819  0.17244599  0.36291937
   0.86350123  0.06103644  0.17219942
   0.67249951  0.36343399  0.06101397
   0.92240863  0.31085427  0.11252456
   0.61279446  0.42295488  0.31091075
   0.81093990  0.11259016  0.42301422
   0.56115259  0.17180424  0.86353219
   0.86326925  0.06109062  0.67187649
   0.67224351  0.36368738  0.56106696
   0.92293407  0.31046376  0.61258295
   0.61288844  0.42259622  0.81065544
   0.81046274  0.11210136  0.92308153
   0.55927535  0.67362391  0.36311871
   0.86324760  0.56012391  0.17219349
   0.67278787  0.86350738  0.05961462
   0.92332188  0.80836738  0.11419278
   0.61328235  0.92372649  0.31017505
   0.80865672  0.61384508  0.42305001
   0.55926023  0.67232721  0.86406265
   0.86400233  0.55927301  0.67229249
   0.67231729  0.86249783  0.56087006
   0.92331336  0.80941680  0.61368959
   0.61326572  0.92339951  0.80955039
   0.80986777  0.61399053  0.92183365
   0.24971541  0.25036794  0.24879658
   0.24905362  0.74908850  0.24941295
   0.24863479  0.74862764  0.75007227
   0.74795648  0.24866709  0.25038913
   0.49762517  0.99876932  0.50087670
   0.74935932  0.24935824  0.74921016
Li(NbTa)O_3                             
           1
     5.308952   -3.063508    9.453981
     0.002290    6.128619    9.453234
    -5.306010   -3.064454    9.452065
   Li   Nb   O    Ta
  16  10  48   6
Direct configuration=     8
   0.13785219  0.13927988  0.13999755
   0.39208973  0.39008201  0.39073554
   0.14051566  0.14011310  0.64088580
   0.39227613  0.39140028  0.89082035
   0.14046890  0.63884447  0.13989524
   0.38991084  0.89045358  0.39101080
   0.14057121  0.63855269  0.63924753
   0.39083612  0.89138971  0.89020724
   0.63955025  0.14135298  0.13843488
   0.89124787  0.39195773  0.39182339
   0.64078369  0.13990830  0.63852326
   0.89115242  0.39210240  0.89047926
   0.63958371  0.64031122  0.14023346
   0.88943873  0.89065336  0.39186550
   0.64084688  0.64032230  0.64180112
   0.89149285  0.89135771  0.89130340
   1.00033942  0.00190594  0.99828582
   1.00036327  0.00104305  0.49839778
   0.25248144  0.24950473  0.75015275
   0.99914961  0.49868101  0.00181054
   0.00169101  0.49834782  0.50107278
   0.50024544  0.99897265  0.00160594
   0.50019608  0.50046774  0.99941244
   0.75092378  0.75064932  0.25088393
   0.50061134  0.50164785  0.49801321
   0.75021380  0.75193906  0.74898029
   0.06422249  0.17080842  0.36254313
   0.36279012  0.06351085  0.17152442
   0.17026744  0.36203702  0.06464196
   0.42146956  0.31227709  0.11225967
   0.11177562  0.42174312  0.31213599
   0.31427283  0.11213840  0.42107309
   0.06157599  0.17145968  0.86286421
   0.36157723  0.06326645  0.67179286
   0.17199031  0.36287962  0.56183271
   0.42242016  0.31107531  0.61370584
   0.11359045  0.42077653  0.81135340
   0.31149876  0.11308621  0.92238221
   0.06393979  0.67044521  0.36271521
   0.36243264  0.56421865  0.17031067
   0.16998815  0.86334469  0.06380783
   0.42066345  0.81374314  0.11204104
   0.11232390  0.92106166  0.31343154
   0.31309640  0.61182205  0.42116038
   0.06445612  0.66891571  0.86308220
   0.36278754  0.56441183  0.66963907
   0.16990826  0.86316187  0.56367490
   0.42027161  0.81480307  0.61152212
   0.11178143  0.92029360  0.81371859
   0.31265971  0.61201424  0.92099538
   0.56484490  0.17024844  0.36233548
   0.86292683  0.06380100  0.17004821
   0.67026584  0.36294544  0.06385009
   0.92028871  0.31348675  0.11193154
   0.61206352  0.42099691  0.31369228
   0.81362429  0.11195272  0.42112222
   0.56380466  0.16965873  0.86308564
   0.86274546  0.06398484  0.66952589
   0.67003589  0.36330979  0.56381433
   0.92105492  0.31305522  0.61187473
   0.61222711  0.42064103  0.81331740
   0.81303923  0.11139112  0.92117729
   0.56182029  0.67184485  0.36252256
   0.86277636  0.56265937  0.17028084
   0.67088061  0.86296038  0.06224345
   0.92153373  0.81070965  0.11379502
   0.61274219  0.92191427  0.31271138
   0.81102511  0.61333220  0.42130085
   0.56177751  0.67038848  0.86351778
   0.86367165  0.56162066  0.67037015
   0.67031429  0.86173008  0.56353483
   0.92153662  0.81196961  0.61308689
   0.61274827  0.92168103  0.81198221
   0.81235753  0.61363279  0.91979986
   0.24954349  0.24991184  0.24877618
   0.24901075  0.74901142  0.24927589
   0.24862577  0.74864125  0.74976190
   0.74788200  0.24860881  0.25025342
   0.49756634  0.99879106  0.50053122
   0.74932900  0.24927292  0.74904661
Li(NbTa)O_3                             
           1
     5.318063   -3.069240    9.420242
     0.001619    6.139474    9.419679
    -5.315724   -3.069760    9.418814
   Li   Nb   O    Ta
  16  10  48   6
Direct configuration=     9
   0.13769592  0.13928593  0.14008412
   0.39235465  0.39017583  0.39079217
   0.14062803  0.14011126  0.64097187
   0.39256207  0.39167464  0.89097920
   0.14064405  0.63876566  0.13992855
   0.38995636  0.89054691  0.39125861
   0.14071194  0.63857761  0.63921917
   0.39097724  0.89150378  0.89024884
   0.63954622  0.14162252  0.13842209
   0.89147572  0.39204404  0.39206103
   0.64094480  0.13997857  0.63839866
   0.89128096  0.39222973  0.89069989
   0.63953038  0.64030482  0.14035217
   0.88944966  0.89087838  0.39208908
   0.64090274  0.64044128  0.64200319
   0.89168940  0.89163975  0.89140041
   1.00007396  0.00156731  0.99817462
   1.00013412  0.00075490  0.49817612
   0.25221582  0.24924551  0.74986327
   0.99904443  0.49846638  0.00160536
   0.00152567  0.49816295  0.50074267
   0.49993860  0.99889896  0.00131632
   0.49986138  0.50017894  0.99928806
   0.75049247  0.75041902  0.25067825
   0.50037586  0.50132726  0.49789127
   0.74991431  0.75171143  0.74882369
   0.06671531  0.16905165  0.36202872
   0.36238705  0.06572595  0.16994369
   0.16856348  0.36138872  0.06707892
   0.42000291  0.31446831  0.11161712
   0.11121185  0.42016851  0.31432301
   0.31664299  0.11157079  0.41943472
   0.06378034  0.16984796  0.86236287
   0.36095985  0.06555581  0.67025059
   0.17057741  0.36232101  0.56391398
   0.42101720  0.31307790  0.61333038
   0.11322146  0.41920827  0.81338734
   0.31357621  0.11259658  0.92092955
   0.06626362  0.66875778  0.36216287
   0.36181677  0.56663333  0.16858784
   0.16823494  0.86295095  0.06614305
   0.41910832  0.81600826  0.11146007
   0.11173835  0.91957952  0.31564729
   0.31528402  0.61120074  0.41965577
   0.06692646  0.66698066  0.86266282
   0.36223397  0.56690207  0.66780382
   0.16815795  0.86271104  0.56602976
   0.41847166  0.81729196  0.61086275
   0.11110146  0.91870435  0.81603028
   0.31492759  0.61138851  0.91938022
   0.56724837  0.16852385  0.36177718
   0.86234708  0.06616719  0.16833693
   0.66843629  0.36245487  0.06630189
   0.91864627  0.31575777  0.11130173
   0.61138432  0.41941505  0.31605336
   0.81591297  0.11135657  0.41958495
   0.56609029  0.16795447  0.86260278
   0.86220067  0.06649363  0.66761849
   0.66825596  0.36290398  0.56618674
   0.91956645  0.31526100  0.61119365
   0.61161333  0.41904913  0.81559688
   0.81523931  0.11071671  0.91964757
   0.56400644  0.67029458  0.36199829
   0.86233165  0.56484031  0.16866549
   0.66920380  0.86249400  0.06450349
   0.91996101  0.81276563  0.11343140
   0.61225966  0.92038830  0.31485307
   0.81307553  0.61287455  0.41977313
   0.56400144  0.66875565  0.86298339
   0.86332735  0.56369644  0.66875100
   0.66871193  0.86099371  0.56583608
   0.92001538  0.81416576  0.61253810
   0.61227626  0.92021778  0.81405259
   0.81452831  0.61322055  0.91815745
   0.24935447  0.24958972  0.24865884
   0.24888256  0.74887877  0.24910201
   0.24848611  0.74855821  0.74948334
   0.74776103  0.24847657  0.25006186
   0.49746830  0.99870220  0.50025517
   0.74921474  0.24911710  0.74885143
Li(NbTa)O_3                             
           1
     5.321970   -3.071577    9.406204
     0.001528    6.144027    9.405653
    -5.319725   -3.072046    9.404848
   Li   Nb   O    Ta
  16  10  48   6
Direct configuration=    10
   0.13766677  0.13931179  0.14013147
   0.39247802  0.39025111  0.39086388