 vasp.5.4.4.18Apr17-6-g9f103f2a35 (build Mar 05 2020 17:21:05) complex          
  
 executed on Linux justhpc1_p2018 date 2024.04.10  22:58:25
 running on   96 total cores
 distrk:  each k-point on   96 cores,    1 groups
 distr:  one band on NCORES_PER_BAND=   1 cores,   96 groups


--------------------------------------------------------------------------------------------------------


 INCAR:
 POTCAR:    PAW_PBE Li 17Jan2003                  
 POTCAR:    PAW_PBE Nb_sv 25May2007               
 POTCAR:    PAW_PBE O 08Apr2002                   
 POTCAR:    PAW_PBE Ta 17Jan2003                  

 ----------------------------------------------------------------------------- 
|                                                                             |
|           W    W    AA    RRRRR   N    N  II  N    N   GGGG   !!!           |
|           W    W   A  A   R    R  NN   N  II  NN   N  G    G  !!!           |
|           W    W  A    A  R    R  N N  N  II  N N  N  G       !!!           |
|           W WW W  AAAAAA  RRRRR   N  N N  II  N  N N  G  GGG   !            |
|           WW  WW  A    A  R   R   N   NN  II  N   NN  G    G                |
|           W    W  A    A  R    R  N    N  II  N    N   GGGG   !!!           |
|                                                                             |
|      For optimal performance we recommend to set                            |
|        NCORE= 4 - approx SQRT( number of cores)                             |
|      NCORE specifies how many cores store one orbital (NPAR=cpu/NCORE).     |
|      This setting can  greatly improve the performance of VASP for DFT.     |
|      The default,   NCORE=1            might be grossly inefficient         |
|      on modern multi-core architectures or massively parallel machines.     |
|      Do your own testing !!!!                                               |
|      Unfortunately you need to use the default for GW and RPA calculations. |
|      (for HF NCORE is supported but not extensively tested yet)             |
|                                                                             |
 ----------------------------------------------------------------------------- 

 POTCAR:    PAW_PBE Li 17Jan2003                  
  local pseudopotential read in
  partial core-charges read in
  partial kinetic energy density read in
  atomic valenz-charges read in
  non local Contribution for L=           0  read in
    real space projection operators read in
  non local Contribution for L=           0  read in
    real space projection operators read in
  non local Contribution for L=           1  read in
    real space projection operators read in
    PAW grid and wavefunctions read in
 
   number of l-projection  operators is LMAX  =           3
   number of lm-projection operators is LMMAX =           5
 
 POTCAR:    PAW_PBE Nb_sv 25May2007               
  local pseudopotential read in
  partial core-charges read in
  partial kinetic energy density read in
  atomic valenz-charges read in
  non local Contribution for L=           0  read in
    real space projection operators read in
  non local Contribution for L=           0  read in
    real space projection operators read in
  non local Contribution for L=           1  read in
    real space projection operators read in
  non local Contribution for L=           1  read in
    real space projection operators read in
  non local Contribution for L=           2  read in
    real space projection operators read in
  non local Contribution for L=           2  read in
    real space projection operators read in
    PAW grid and wavefunctions read in
 
   number of l-projection  operators is LMAX  =           6
   number of lm-projection operators is LMMAX =          18
 
 POTCAR:    PAW_PBE O 08Apr2002                   
  local pseudopotential read in
  partial core-charges read in
  partial kinetic energy density read in
  kinetic energy density of atom read in
  atomic valenz-charges read in
  non local Contribution for L=           0  read in
    real space projection operators read in
  non local Contribution for L=           0  read in
    real space projection operators read in
  non local Contribution for L=           1  read in
    real space projection operators read in
  non local Contribution for L=           1  read in
    real space projection operators read in
    PAW grid and wavefunctions read in
 
   number of l-projection  operators is LMAX  =           4
   number of lm-projection operators is LMMAX =           8
 
 POTCAR:    PAW_PBE Ta 17Jan2003                  
  local pseudopotential read in
  partial core-charges read in
  partial kinetic energy density read in
  atomic valenz-charges read in
  non local Contribution for L=           2  read in
    real space projection operators read in
  non local Contribution for L=           2  read in
    real space projection operators read in
  non local Contribution for L=           0  read in
    real space projection operators read in
  non local Contribution for L=           0  read in
    real space projection operators read in
  non local Contribution for L=           1  read in
    real space projection operators read in
  non local Contribution for L=           1  read in
    real space projection operators read in
    PAW grid and wavefunctions read in
 
   number of l-projection  operators is LMAX  =           6
   number of lm-projection operators is LMMAX =          18
 
 Optimization of the real space projectors (new method)

 maximal supplied QI-value         = 18.33
 optimisation between [QCUT,QGAM] = [ 11.00, 22.18] = [ 33.87,137.76] Ry 
 Optimized for a Real-space Cutoff    1.27 Angstroem

   l    n(q)    QCUT    max X(q) W(low)/X(q) W(high)/X(q)  e(spline) 
   0      8    10.998    33.825    0.29E-04    0.16E-03    0.54E-07
   0      8    10.998     8.944    0.19E-04    0.12E-03    0.42E-07
   1      8    10.998     4.214    0.16E-03    0.32E-04    0.49E-07
 Optimization of the real space projectors (new method)

 maximal supplied QI-value         = 15.68
 optimisation between [QCUT,QGAM] = [ 11.14, 22.27] = [ 34.73,138.91] Ry 
 Optimized for a Real-space Cutoff    1.75 Angstroem

   l    n(q)    QCUT    max X(q) W(low)/X(q) W(high)/X(q)  e(spline) 
   0     12    11.136    10.201    0.25E-04    0.67E-06    0.52E-07
   0     12    11.136     8.174    0.39E-04    0.20E-05    0.97E-07
   1     11    11.136     3.488    0.15E-05    0.92E-05    0.13E-06
   1     11    11.136     4.917    0.87E-05    0.65E-04    0.82E-06
   2     11    11.136   153.744    0.20E-03    0.19E-03    0.13E-05
   2     11    11.136   126.342    0.20E-03    0.19E-03    0.13E-05
 Optimization of the real space projectors (new method)

 maximal supplied QI-value         = 24.76
 optimisation between [QCUT,QGAM] = [ 11.14, 22.28] = [ 34.75,139.00] Ry 
 Optimized for a Real-space Cutoff    1.19 Angstroem

   l    n(q)    QCUT    max X(q) W(low)/X(q) W(high)/X(q)  e(spline) 
   0      8    11.140    20.381    0.23E-03    0.52E-03    0.22E-06
   0      8    11.140    15.268    0.24E-03    0.55E-03    0.24E-06
   1      7    11.140     5.964    0.11E-03    0.44E-03    0.26E-06
   1      7    11.140     5.382    0.84E-04    0.37E-03    0.23E-06
 Optimization of the real space projectors (new method)

 maximal supplied QI-value         = 12.85
 optimisation between [QCUT,QGAM] = [ 11.05, 22.23] = [ 34.20,138.39] Ry 
 Optimized for a Real-space Cutoff    1.65 Angstroem

   l    n(q)    QCUT    max X(q) W(low)/X(q) W(high)/X(q)  e(spline) 
   2     10    11.051    62.315    0.21E-03    0.15E-03    0.40E-06
   2     10    11.051    52.185    0.21E-03    0.15E-03    0.40E-06
   0     11    11.051   103.837    0.25E-04    0.82E-06    0.35E-06
   0     11    11.051    59.728    0.19E-04    0.76E-06    0.31E-06
   1     11    11.051    13.958    0.72E-04    0.92E-04    0.65E-06
   1     11    11.051     8.441    0.56E-04    0.61E-04    0.46E-06

 ----------------------------------------------------------------------------- 
|                                                                             |
|  ADVICE TO THIS USER RUNNING 'VASP/VAMP'   (HEAR YOUR MASTER'S VOICE ...):  |
|                                                                             |
|      You enforced a specific xc-type in the INCAR file,                     |
|      a different type was found on the POTCAR file                          |
|          I HOPE YOU KNOW, WHAT YOU ARE  DOING                               |
|                                                                             |
 ----------------------------------------------------------------------------- 

  PAW_PBE Li 17Jan2003                  :
 energy of atom  1       EATOM=   -5.3001
 kinetic energy error for atom=    0.0000 (will be added to EATOM!!)
  PAW_PBE Nb_sv 25May2007               :
 energy of atom  2       EATOM=-1555.1913
 kinetic energy error for atom=    0.0086 (will be added to EATOM!!)
  PAW_PBE O 08Apr2002                   :
 energy of atom  3       EATOM= -432.3788
 kinetic energy error for atom=    0.0273 (will be added to EATOM!!)
  PAW_PBE Ta 17Jan2003                  :
 energy of atom  4       EATOM= -130.6506
 kinetic energy error for atom=    0.0015 (will be added to EATOM!!)
 
 
 POSCAR: Li Nb  O Ta + 0 %                       
  positions in direct lattice
  velocities in cartesian coordinates
 exchange correlation table for  LEXCH =       14
   RHO(1)=    0.500       N(1)  =     2000
   RHO(2)=  100.500       N(2)  =     4000
 


--------------------------------------------------------------------------------------------------------


 ion  position               nearest neighbor table
   1  0.138  0.139  0.140-  38 2.03  43 2.03  54 2.03  27 2.28  29 2.29  28 2.29  75 3.03  18 3.04
                            20 3.05  22 3.07  78 3.37  76 3.37
   2  0.391  0.390  0.391-  51 2.04  35 2.05  40 2.05  55 2.25  44 2.25  36 2.26  25 3.00  78 3.03
                            76 3.05  19 3.05  79 3.39
   3  0.140  0.140  0.641-  32 2.05  60 2.05  49 2.05  33 2.26  34 2.26  35 2.27  17 3.03  19 3.03
                            21 3.03  79 3.03  80 3.38  75 3.39  77 3.39
   4  0.392  0.391  0.891-  57 2.05  46 2.05  29 2.06  61 2.24  50 2.25  30 2.25  23 2.99  80 3.04
                            77 3.04  75 3.04
   5  0.140  0.639  0.140-  31 2.03  50 2.04  66 2.04  40 2.27  39 2.28  41 2.28  76 3.00  23 3.06
                            21 3.07  17 3.08  75 3.36  77 3.37
   6  0.390  0.890  0.390-  63 2.04  28 2.04  47 2.04  48 2.26  32 2.27  67 2.27  79 2.98  77 3.05
                            75 3.06  24 3.07
   7  0.140  0.639  0.639-  44 2.03  37 2.03  72 2.04  46 2.28  45 2.28  47 2.28  77 3.00  25 3.06
                            18 3.07  20 3.07  76 3.37
   8  0.391  0.891  0.890-  34 2.04  69 2.05  41 2.05  73 2.25  42 2.25  38 2.26  22 3.00  19 3.04
                            76 3.05  26 3.05  79 3.37
   9  0.640  0.141  0.139-  30 2.03  62 2.03  67 2.04  53 2.27  52 2.28  51 2.28  78 3.00  23 3.05
                            17 3.06  79 3.08  80 3.36  75 3.37
  10  0.891  0.392  0.391-  59 2.05  64 2.06  27 2.06  68 2.24  31 2.24  60 2.24  21 2.99  24 3.04
                            80 3.04  75 3.05
  11  0.640  0.140  0.639-  56 2.03  36 2.03  73 2.04  58 2.27  59 2.27  57 2.28  80 3.00  18 3.05
                            25 3.07  22 3.08  78 3.36
  12  0.891  0.392  0.890-  70 2.04  33 2.05  53 2.06  74 2.24  37 2.25  54 2.25  20 2.98  26 3.05
                            78 3.06  19 3.07
  13  0.640  0.641  0.140-  42 2.04  55 2.04  74 2.05  64 2.26  65 2.26  63 2.26  25 3.03  22 3.03
                            24 3.04  20 3.04  76 3.38  78 3.39
  14  0.890  0.890  0.392-  71 2.04  39 2.05  52 2.05  56 2.26  72 2.26  43 2.27  18 3.00  26 3.03
                            78 3.04  76 3.05  79 3.39
  15  0.641  0.640  0.641-  61 2.04  68 2.05  48 2.06  70 2.25  71 2.25  69 2.25  26 3.00  23 3.03
                            79 3.04  21 3.06  80 3.38  77 3.40
  16  0.891  0.891  0.891-  65 2.05  58 2.06  45 2.06  62 2.24  49 2.24  66 2.25  17 2.99  77 3.04
                            80 3.04  24 3.05
  17  1.000  0.002  0.997-  33 1.88  52 1.90  41 1.91  49 2.08  62 2.08  66 2.12  16 2.99   3 3.03
                             9 3.06   5 3.08
  18  0.999  0.000  0.498-  27 1.89  47 1.90  58 1.90  43 2.08  56 2.08  72 2.10  14 3.00   1 3.04
                            11 3.05   7 3.07
  19  0.252  0.249  0.750-  36 1.88  38 1.89  37 1.89  34 2.09  35 2.11  33 2.12   3 3.03   8 3.04
                             2 3.05  12 3.07
  20  0.997  0.498  0.001-  64 1.89  29 1.90  45 1.91  54 2.07  74 2.09  37 2.11  12 2.98  13 3.04
                             1 3.05   7 3.07
  21  0.001  0.497  0.501-  35 1.88  70 1.89  39 1.91  60 2.08  31 2.10  68 2.12  10 2.99   3 3.03
                            15 3.06   5 3.07
  22  0.500  0.997  0.001-  65 1.88  28 1.90  57 1.91  42 2.08  73 2.10  38 2.11   8 3.00  13 3.03
                             1 3.07  11 3.08
  23  0.500  0.500  0.998-  69 1.89  53 1.90  40 1.91  61 2.08  50 2.09  30 2.10   4 2.99  15 3.03
                             9 3.05   5 3.06
  24  0.751  0.749  0.250-  68 1.88  66 1.88  67 1.90  64 2.11  65 2.12  63 2.12  13 3.04  10 3.04
                            16 3.05   6 3.07
  25  0.500  0.501  0.497-  63 1.88  59 1.91  46 1.91  55 2.08  44 2.08  36 2.12   2 3.00  13 3.03
                             7 3.06  11 3.07
  26  0.749  0.751  0.748-  72 1.89  73 1.89  74 1.90  71 2.08  70 2.11  69 2.11  15 3.00  14 3.03
                             8 3.05  12 3.05
  27  0.056  0.181  0.361-  18 1.89  10 2.06  75 2.09   1 2.28
  28  0.361  0.056  0.181-  22 1.90   6 2.04  75 2.09   1 2.29
  29  0.181  0.360  0.056-  20 1.90   4 2.06  75 2.08   1 2.29
  30  0.432  0.306  0.110-  75 1.90   9 2.03  23 2.10   4 2.25
  31  0.109  0.432  0.306-  75 1.91   5 2.03  21 2.10  10 2.24
  32  0.306  0.110  0.431-  75 1.92   3 2.05  79 2.07   6 2.27
  33  0.055  0.182  0.860-  17 1.88  12 2.05  19 2.12   3 2.26
  34  0.359  0.056  0.682-  79 1.91   8 2.04  19 2.09   3 2.26
  35  0.182  0.361  0.556-  21 1.88   2 2.05  19 2.11   3 2.27
  36  0.432  0.305  0.611-  19 1.88  11 2.03  25 2.12   2 2.26
  37  0.111  0.431  0.805-  19 1.89   7 2.03  20 2.11  12 2.25
  38  0.305  0.111  0.932-  19 1.89   1 2.03  22 2.11   8 2.26
  39  0.056  0.681  0.361-  21 1.91  14 2.05  76 2.08   5 2.28
  40  0.361  0.556  0.181-  23 1.91   2 2.05  76 2.08   5 2.27
  41  0.180  0.861  0.056-  17 1.91   8 2.05  76 2.08   5 2.28
  42  0.431  0.807  0.110-  76 1.92  13 2.04  22 2.08   8 2.25
  43  0.110  0.931  0.306-  76 1.92   1 2.03  18 2.08  14 2.27
  44  0.306  0.610  0.431-  76 1.92   7 2.03  25 2.08   2 2.25
  45  0.056  0.680  0.861-  20 1.91  16 2.06  77 2.07   7 2.28
  46  0.361  0.556  0.680-  25 1.91   4 2.05  77 2.08   7 2.28
  47  0.181  0.861  0.556-  18 1.90   6 2.04  77 2.08   7 2.28
  48  0.431  0.806  0.610-  77 1.93  15 2.06  79 2.06   6 2.26
  49  0.110  0.931  0.807-  77 1.91   3 2.05  17 2.08  16 2.24
  50  0.306  0.610  0.932-  77 1.91   5 2.04  23 2.09   4 2.25
  51  0.557  0.181  0.360-  79 1.93   2 2.04  78 2.06   9 2.28
  52  0.861  0.056  0.181-  17 1.90  14 2.05  78 2.08   9 2.28
  53  0.681  0.361  0.056-  23 1.90  12 2.06  78 2.08   9 2.27
  54  0.931  0.306  0.110-  78 1.93   1 2.03  20 2.07  12 2.25
  55  0.610  0.431  0.306-  78 1.92  13 2.04  25 2.08   2 2.25
  56  0.807  0.110  0.431-  78 1.92  11 2.03  18 2.08  14 2.26
  57  0.556  0.180  0.861-  22 1.91   4 2.05  80 2.08  11 2.28
  58  0.861  0.056  0.681-  18 1.90  16 2.06  80 2.08  11 2.27
  59  0.681  0.361  0.556-  25 1.91  10 2.05  80 2.08  11 2.27
  60  0.931  0.306  0.610-  80 1.92   3 2.05  21 2.08  10 2.24
  61  0.610  0.431  0.806-  80 1.91  15 2.04  23 2.08   4 2.24
  62  0.806  0.109  0.931-  80 1.92   9 2.03  17 2.08  16 2.24
  63  0.556  0.682  0.360-  25 1.88   6 2.04  24 2.12  13 2.26
  64  0.860  0.556  0.180-  20 1.89  10 2.06  24 2.11  13 2.26
  65  0.681  0.860  0.056-  22 1.88  16 2.05  24 2.12  13 2.26
  66  0.931  0.805  0.111-  24 1.88   5 2.04  17 2.12  16 2.25
  67  0.611  0.932  0.305-  24 1.90   9 2.04  79 2.09   6 2.27
  68  0.805  0.611  0.431-  24 1.88  15 2.05  21 2.12  10 2.24
  69  0.556  0.681  0.861-  23 1.89   8 2.05  26 2.11  15 2.25
  70  0.861  0.556  0.681-  21 1.89  12 2.04  26 2.11  15 2.25
  71  0.681  0.860  0.557-  79 1.92  14 2.04  26 2.08  15 2.25
  72  0.931  0.805  0.611-  26 1.89   7 2.04  18 2.10  14 2.26
  73  0.610  0.931  0.806-  26 1.89  11 2.04  22 2.10   8 2.25
  74  0.806  0.611  0.930-  26 1.90  13 2.05  20 2.09  12 2.24
  75  0.249  0.250  0.248-  30 1.90  31 1.91  32 1.92  29 2.08  28 2.09  27 2.09   1 3.03   4 3.04
                            10 3.05   6 3.06   5 3.36   9 3.37   3 3.39
  76  0.248  0.748  0.248-  43 1.92  44 1.92  42 1.92  40 2.08  39 2.08  41 2.08   5 3.00   2 3.05
                             8 3.05  14 3.05   7 3.37   1 3.37  13 3.38
  77  0.248  0.747  0.749-  50 1.91  49 1.91  48 1.93  45 2.07  46 2.08  47 2.08   7 3.00  16 3.04
                             4 3.04   6 3.05   5 3.37   3 3.39  15 3.40
  78  0.747  0.248  0.249-  56 1.92  55 1.92  54 1.93  51 2.06  53 2.08  52 2.08   9 3.00   2 3.03
                            14 3.04  12 3.06  11 3.36   1 3.37  13 3.39
  79  0.497  0.998  0.500-  34 1.91  71 1.92  51 1.93  48 2.06  32 2.07  67 2.09   6 2.98   3 3.03
                            15 3.04   9 3.08   8 3.37   2 3.39  14 3.39
  80  0.748  0.248  0.748-  61 1.91  60 1.92  62 1.92  59 2.08  58 2.08  57 2.08  11 3.00   4 3.04
                            10 3.04  16 3.04   9 3.36   3 3.38  15 3.38
 
  Warning from LATTYP: Got some problem with cell dimensions!
  Tried to take original basis but could not verify dimensions!
  LATTYP: Found a triclinic cell.
 ALAT       =    18.2096053644
 B/A-ratio  =     0.5647103122
 C/A-ratio  =     0.6016367188
 COS(alpha) =     0.0001983670
 COS(beta)  =     0.3367853441
 COS(gamma) =     0.8471333656
  
  Lattice vectors:
  
 A1 = ( -10.2846845783,  11.8737933288,  -9.2102129528)
 A2 = (  -5.1411075121,   8.9057412051,  -0.0008615081)
 A3 = (   5.1409736355,   2.9694006190,  -9.2074699674)


Analysis of symmetry for initial positions (statically):
=====================================================================
 Subroutine PRICEL returns:
 Original cell was already a primitive cell.
 

 Routine SETGRP: Setting up the symmetry group for a 
 triclinic supercell.


 Subroutine GETGRP returns: Found  1 space group operations
 (whereof  1 operations were pure point group operations)
 out of a pool of  2 trial point group operations.


The static configuration has the point symmetry C_1 .


Analysis of symmetry for dynamics (positions and initial velocities):
=====================================================================
 Subroutine PRICEL returns:
 Original cell was already a primitive cell.
 

 Routine SETGRP: Setting up the symmetry group for a 
 triclinic supercell.


 Subroutine GETGRP returns: Found  1 space group operations
 (whereof  1 operations were pure point group operations)
 out of a pool of  2 trial point group operations.


The dynamic configuration has the point symmetry C_1 .


 Subroutine INISYM returns: Found  1 space group operations
 (whereof  1 operations are pure point group operations),
 and found     1 'primitive' translations

 
 
 KPOINTS: Autom                                   

Automatic generation of k-mesh.
Space group operators:
 irot       det(A)        alpha          n_x          n_y          n_z        tau_x        tau_y        tau_z
    1     1.000000     0.000000     1.000000     0.000000     0.000000     0.000000     0.000000     0.000000
 
 Subroutine IBZKPT returns following result:
 ===========================================
 
 Found     36 irreducible k-points:
 
 Following reciprocal coordinates:
            Coordinates               Weight
  0.000000  0.000000  0.000000      1.000000
  0.250000  0.000000  0.000000      2.000000
  0.500000  0.000000  0.000000      1.000000
 -0.000000  0.250000  0.000000      2.000000
  0.250000  0.250000  0.000000      2.000000
  0.500000  0.250000  0.000000      2.000000
 -0.250000  0.250000  0.000000      2.000000
 -0.000000  0.500000  0.000000      1.000000
  0.250000  0.500000  0.000000      2.000000
  0.500000  0.500000  0.000000      1.000000
  0.000000  0.000000  0.250000      2.000000
  0.250000  0.000000  0.250000      2.000000
  0.500000  0.000000  0.250000      2.000000
 -0.250000  0.000000  0.250000      2.000000
  0.000000  0.250000  0.250000      2.000000
  0.250000  0.250000  0.250000      2.000000
  0.500000  0.250000  0.250000      2.000000
 -0.250000  0.250000  0.250000      2.000000
  0.000000  0.500000  0.250000      2.000000
  0.250000  0.500000  0.250000      2.000000
  0.500000  0.500000  0.250000      2.000000
 -0.250000  0.500000  0.250000      2.000000
 -0.000000 -0.250000  0.250000      2.000000
  0.250000 -0.250000  0.250000      2.000000
  0.500000 -0.250000  0.250000      2.000000
 -0.250000 -0.250000  0.250000      2.000000
  0.000000  0.000000  0.500000      1.000000
  0.250000  0.000000  0.500000      2.000000
  0.500000  0.000000  0.500000      1.000000
  0.000000  0.250000  0.500000      2.000000
  0.250000  0.250000  0.500000      2.000000
  0.500000  0.250000  0.500000      2.000000
 -0.250000  0.250000  0.500000      2.000000
  0.000000  0.500000  0.500000      1.000000
  0.250000  0.500000  0.500000      2.000000
  0.500000  0.500000  0.500000      1.000000
 
 Following cartesian coordinates:
            Coordinates               Weight
  0.000000  0.000000  0.000000      1.000000
  0.024356 -0.014065  0.009063      2.000000
  0.048712 -0.028131  0.018126      1.000000
 -0.000005  0.028124  0.009067      2.000000
  0.024351  0.014059  0.018130      2.000000
  0.048706 -0.000007  0.027193      2.000000
 -0.024361  0.042190  0.000004      2.000000
 -0.000011  0.056249  0.018134      1.000000
  0.024345  0.042183  0.027197      2.000000
  0.048701  0.028118  0.036260      1.000000
 -0.024355 -0.014059  0.009072      2.000000
  0.000000 -0.028125  0.018135      2.000000
  0.024356 -0.042190  0.027198      2.000000
 -0.048711  0.000006  0.000009      2.000000
 -0.024361  0.014065  0.018139      2.000000
 -0.000005 -0.000000  0.027202      2.000000
  0.024351 -0.014066  0.036265      2.000000
 -0.048717  0.028131  0.009076      2.000000
 -0.024366  0.042189  0.027206      2.000000
 -0.000010  0.028124  0.036269      2.000000
  0.024346  0.014059  0.045332      2.000000
 -0.048722  0.056255  0.018143      2.000000
 -0.024350 -0.042183  0.000005      2.000000
  0.000006 -0.056249  0.009068      2.000000
  0.024362 -0.070314  0.018131      2.000000
 -0.048706 -0.028118 -0.009058      2.000000
 -0.048711 -0.028118  0.018144      1.000000
 -0.024355 -0.042184  0.027207      2.000000
  0.000001 -0.056249  0.036270      1.000000
 -0.048716  0.000006  0.027211      2.000000
 -0.024360 -0.014059  0.036274      2.000000
 -0.000005 -0.028125  0.045337      2.000000
 -0.073072  0.014072  0.018148      2.000000
 -0.048722  0.028130  0.036278      1.000000
 -0.024366  0.014065  0.045341      2.000000
 -0.000010 -0.000000  0.054404      1.000000
 
 TETIRR: Found    192 inequivalent tetrahedra from      384


--------------------------------------------------------------------------------------------------------




 Dimension of arrays:
   k-points           NKPTS =     36   k-points in BZ     NKDIM =     36   number of bands    NBANDS=    288
   number of dos      NEDOS =    301   number of ions     NIONS =     80
   non local maximal  LDIM  =      6   non local SUM 2l+1 LMDIM =     18
   total plane-waves  NPLWV = 512000
   max r-space proj   IRMAX =  13762   max aug-charges    IRDMAX=  41515
   dimension x,y,z NGX =    80 NGY =   80 NGZ =   80
   dimension x,y,z NGXF=   160 NGYF=  160 NGZF=  160
   support grid    NGXF=   160 NGYF=  160 NGZF=  160
   ions per type =              16  10  48   6
   NGX,Y,Z   is equivalent  to a cutoff of  12.14, 12.14, 12.14 a.u.
   NGXF,Y,Z  is equivalent  to a cutoff of  24.27, 24.28, 24.28 a.u.

 SYSTEM =  Li(NbTa)O_3                             
 POSCAR =  Li Nb  O Ta + 0 %                       

 Startparameter for this run:
   NWRITE =      0    write-flag & timer
   PREC   = accura    normal or accurate (medium, high low for compatibility)
   ISTART =      0    job   : 0-new  1-cont  2-samecut
   ICHARG =      2    charge: 1-file 2-atom 10-const
   ISPIN  =      1    spin polarized calculation?
   LNONCOLLINEAR =      F non collinear calculations
   LSORBIT =      F    spin-orbit coupling
   INIWAV =      1    electr: 0-lowe 1-rand  2-diag
   LASPH  =      F    aspherical Exc in radial PAW
   METAGGA=      F    non-selfconsistent MetaGGA calc.

 Electronic Relaxation 1
   ENCUT  =  475.0 eV  34.91 Ry    5.91 a.u.  19.47 19.47 19.47*2*pi/ulx,y,z
   ENINI  =  475.0     initial cutoff
   ENAUG  =  605.4 eV  augmentation charge cutoff
   NELM   =   1000;   NELMIN=  4; NELMDL= -5     # of ELM steps 
   EDIFF  = 0.1E-05   stopping-criterion for ELM
   LREAL  =      T    real-space projection
   NLSPLINE    = F    spline interpolate recip. space projectors
   LCOMPAT=      F    compatible to vasp.4.4
   GGA_COMPAT  = T    GGA compatible to vasp.4.4-vasp.4.6
   LMAXPAW     = -100 max onsite density
   LMAXMIX     =    2 max onsite mixed and CHGCAR
   VOSKOWN=      0    Vosko Wilk Nusair interpolation
   ROPT   =   -0.00025  -0.00025  -0.00025  -0.00025
 Ionic relaxation
   EDIFFG = -.5E-02   stopping-criterion for IOM
   NSW    =    200    number of steps for IOM
   NBLOCK =      1;   KBLOCK =    200    inner block; outer block 
   IBRION =      1    ionic relax: 0-MD 1-quasi-New 2-CG
   NFREE  =      0    steps in history (QN), initial steepest desc. (CG)
   ISIF   =      4    stress and relaxation
   IWAVPR =     11    prediction:  0-non 1-charg 2-wave 3-comb
   ISYM   =      2    0-nonsym 1-usesym 2-fastsym
   LCORR  =      T    Harris-Foulkes like correction to forces

   POTIM  = 0.1500    time-step for ionic-motion
   TEIN   =    0.0    initial temperature
   TEBEG  =    0.0;   TEEND  =   0.0 temperature during run
   SMASS  =  -3.00    Nose mass-parameter (am)
   estimated Nose-frequenzy (Omega)   =  0.10E-29 period in steps =****** mass=  -0.274E-26a.u.
   SCALEE = 1.0000    scale energy and forces
   NPACO  =    256;   APACO  = 16.0  distance and # of slots for P.C.
   PSTRESS=    0.0 pullay stress

  Mass of Ions in am
   POMASS =   7.01 92.91 16.00180.95
  Ionic Valenz
   ZVAL   =   1.00 13.00  6.00  5.00
  Atomic Wigner-Seitz radii
   RWIGS  =  -1.00 -1.00 -1.00 -1.00
  virtual crystal weights 
   VCA    =   1.00  1.00  1.00  1.00
   NELECT =     464.0000    total number of electrons
   NUPDOWN=      -1.0000    fix difference up-down

 DOS related values:
   EMIN   =  10.00;   EMAX   =-10.00  energy-range for DOS
   EFERMI =   0.00
   ISMEAR =    -5;   SIGMA  =   0.05  broadening in eV -4-tet -1-fermi 0-gaus

 Electronic relaxation 2 (details)
   IALGO  =     68    algorithm
   LDIAG  =      T    sub-space diagonalisation (order eigenvalues)
   LSUBROT=      F    optimize rotation matrix (better conditioning)
   TURBO    =      0    0=normal 1=particle mesh
   IRESTART =      0    0=no restart 2=restart with 2 vectors
   NREBOOT  =      0    no. of reboots
   NMIN     =      0    reboot dimension
   EREF     =   0.00    reference energy to select bands
   IMIX   =      4    mixing-type and parameters
     AMIX     =   0.40;   BMIX     =  1.00
     AMIX_MAG =   1.60;   BMIX_MAG =  1.00
     AMIN     =   0.10
     WC   =   100.;   INIMIX=   1;  MIXPRE=   1;  MAXMIX= -45

 Intra band minimization:
   WEIMIN = 0.0010     energy-eigenvalue tresh-hold
   EBREAK =  0.87E-09  absolut break condition
   DEPER  =   0.30     relativ break condition  

   TIME   =   0.40     timestep for ELM

  volume/ion in A,a.u.               =      10.54        71.15
  Fermi-wavevector in a.u.,A,eV,Ry     =   1.341393  2.534866 24.481448  1.799336
  Thomas-Fermi vector in A             =   2.469630
 
 Write flags
   LWAVE        =      F    write WAVECAR
   LDOWNSAMPLE  =      F    k-point downsampling of WAVECAR
   LCHARG       =      F    write CHGCAR
   LVTOT        =      F    write LOCPOT, total local potential
   LVHAR        =      F    write LOCPOT, Hartree potential only
   LELF         =      F    write electronic localiz. function (ELF)
   LORBIT       =      0    0 simple, 1 ext, 2 COOP (PROOUT), +10 PAW based schemes


 Dipole corrections
   LMONO  =      F    monopole corrections only (constant potential shift)
   LDIPOL =      F    correct potential (dipole corrections)
   IDIPOL =      0    1-x, 2-y, 3-z, 4-all directions 
   EPSILON=  1.0000000 bulk dielectric constant

 Exchange correlation treatment:
   GGA     =    PS    GGA type
   LEXCH   =    14    internal setting for exchange type
   VOSKOWN=      0    Vosko Wilk Nusair interpolation
   LHFCALC =     F    Hartree Fock is set to
   LHFONE  =     F    Hartree Fock one center treatment
   AEXX    =    0.0000 exact exchange contribution

 Linear response parameters
   LEPSILON=     F    determine dielectric tensor
   LRPA    =     F    only Hartree local field effects (RPA)
   LNABLA  =     F    use nabla operator in PAW spheres
   LVEL    =     F    velocity operator in full k-point grid
   LINTERFAST=   F  fast interpolation
   KINTER  =     0    interpolate to denser k-point grid
   CSHIFT  =0.1000    complex shift for real part using Kramers Kronig
   OMEGAMAX=  -1.0    maximum frequency
   DEG_THRESHOLD= 0.2000000E-02 threshold for treating states as degnerate
   RTIME   =   -0.100 relaxation time in fs
  (WPLASMAI=    0.000 imaginary part of plasma frequency in eV, 0.658/RTIME)
   DFIELD  = 0.0000000 0.0000000 0.0000000 field for delta impulse in time
 
 Orbital magnetization related:
   ORBITALMAG=     F  switch on orbital magnetization
   LCHIMAG   =     F  perturbation theory with respect to B field
   DQ        =  0.001000  dq finite difference perturbation B field
   LLRAUG    =     F  two centre corrections for induced B field



--------------------------------------------------------------------------------------------------------


 quasi-Newton-method for relaxation of ions
 charge density and potential will be updated during run
 non-spin polarized calculation
 RMM-DIIS sequential band-by-band and
  variant of blocked Davidson during initial phase
 perform sub-space diagonalisation
    before iterative eigenvector-optimisation
 modified Broyden-mixing scheme, WC =      100.0
 initial mixing is a Kerker type mixing with AMIX =  0.4000 and BMIX =      1.0000
 Hartree-type preconditioning will be used
 using additional bands           56
 real space projection scheme for non local part
 use partial core corrections
 calculate Harris-corrections to forces 
   (improved forces if not selfconsistent)
 use gradient corrections 
 use of overlap-Matrix (Vanderbilt PP)
 Fermi weights with tetrahedron method with Bloechl corrections


--------------------------------------------------------------------------------------------------------


  energy-cutoff  :      475.00
  volume of cell :      843.48
      direct lattice vectors                 reciprocal lattice vectors
     5.143577066 -2.968052124  9.209351445     0.097233965 -0.056152379  0.036181312
     0.002469554  5.937689081  9.208489937    -0.000021344  0.112278297  0.036197730
    -5.140973635 -2.969400619  9.207469967    -0.097232488 -0.056126881  0.036217023

  length of vectors
    10.958004950 10.956844648 10.955567222     0.117968729  0.117969030  0.117966335


 
 k-points in units of 2pi/SCALE and weight: Autom                                   
   0.00000000  0.00000000  0.00000000       0.016
   0.02435586 -0.01406545  0.00906295       0.031
   0.04871171 -0.02813090  0.01812591       0.016
  -0.00000535  0.02812427  0.00906707       0.031
   0.02435051  0.01405882  0.01813002       0.031
   0.04870637 -0.00000663  0.02719297       0.031
  -0.02436120  0.04218972  0.00000411       0.031
  -0.00001069  0.05624853  0.01813413       0.016
   0.02434516  0.04218309  0.02719708       0.031
   0.04870102  0.02811764  0.03626004       0.016
  -0.02435549 -0.01405906  0.00907190       0.031
   0.00000037 -0.02812451  0.01813485       0.031
   0.02435623 -0.04218996  0.02719780       0.031
  -0.04871134  0.00000639  0.00000895       0.031
  -0.02436083  0.01406521  0.01813896       0.031
  -0.00000498 -0.00000024  0.02720192       0.031
   0.02435088 -0.01406569  0.03626487       0.031
  -0.04871669  0.02813065  0.00907601       0.031
  -0.02436618  0.04218947  0.02720603       0.031
  -0.00001032  0.02812403  0.03626898       0.031
   0.02434553  0.01405858  0.04533193       0.031
  -0.04872204  0.05625492  0.01814308       0.031
  -0.02435014 -0.04218333  0.00000483       0.031
   0.00000572 -0.05624878  0.00906779       0.031
   0.02436157 -0.07031422  0.01813074       0.031
  -0.04870600 -0.02811788 -0.00905812       0.031
  -0.04871097 -0.02811812  0.01814380       0.016
  -0.02435512 -0.04218357  0.02720675       0.031
   0.00000074 -0.05624902  0.03626970       0.016
  -0.04871632  0.00000615  0.02721086       0.031
  -0.02436046 -0.01405930  0.03627381       0.031
  -0.00000461 -0.02812475  0.04533677       0.031
  -0.07307217  0.01407159  0.01814791       0.031
  -0.04872167  0.02813041  0.03627793       0.016
  -0.02436581  0.01406497  0.04534088       0.031
  -0.00000995 -0.00000048  0.05440383       0.016
 
 k-points in reciprocal lattice and weights: Autom                                   
   0.00000000  0.00000000  0.00000000       0.016
   0.25000000  0.00000000  0.00000000       0.031
   0.50000000  0.00000000  0.00000000       0.016
  -0.00000000  0.25000000  0.00000000       0.031
   0.25000000  0.25000000  0.00000000       0.031
   0.50000000  0.25000000  0.00000000       0.031
  -0.25000000  0.25000000  0.00000000       0.031
  -0.00000000  0.50000000  0.00000000       0.016
   0.25000000  0.50000000  0.00000000       0.031
   0.50000000  0.50000000  0.00000000       0.016
   0.00000000  0.00000000  0.25000000       0.031
   0.25000000  0.00000000  0.25000000       0.031
   0.50000000  0.00000000  0.25000000       0.031
  -0.25000000  0.00000000  0.25000000       0.031
   0.00000000  0.25000000  0.25000000       0.031
   0.25000000  0.25000000  0.25000000       0.031
   0.50000000  0.25000000  0.25000000       0.031
  -0.25000000  0.25000000  0.25000000       0.031
   0.00000000  0.50000000  0.25000000       0.031
   0.25000000  0.50000000  0.25000000       0.031
   0.50000000  0.50000000  0.25000000       0.031
  -0.25000000  0.50000000  0.25000000       0.031
  -0.00000000 -0.25000000  0.25000000       0.031
   0.25000000 -0.25000000  0.25000000       0.031
   0.50000000 -0.25000000  0.25000000       0.031
  -0.25000000 -0.25000000  0.25000000       0.031
   0.00000000  0.00000000  0.50000000       0.016
   0.25000000  0.00000000  0.50000000       0.031
   0.50000000  0.00000000  0.50000000       0.016
   0.00000000  0.25000000  0.50000000       0.031
   0.25000000  0.25000000  0.50000000       0.031
   0.50000000  0.25000000  0.50000000       0.031
  -0.25000000  0.25000000  0.50000000       0.031
   0.00000000  0.50000000  0.50000000       0.016
   0.25000000  0.50000000  0.50000000       0.031
   0.50000000  0.50000000  0.50000000       0.016
 
 position of ions in fractional coordinates (direct lattice) 
   0.13834752  0.13936271  0.13984335
   0.39146324  0.38999630  0.39085144
   0.14028321  0.14032414  0.64092124
   0.39173469  0.39088444  0.89059988
   0.14005761  0.63914415  0.13990376
   0.38998511  0.89022976  0.39046082
   0.14027342  0.63856692  0.63942290
   0.39066873  0.89122478  0.89017412
   0.63968950  0.14081636  0.13851063
   0.89081879  0.39199278  0.39127564
   0.64044608  0.13979598  0.63895884
   0.89104424  0.39188824  0.88993991
   0.63987068  0.64050964  0.14005521
   0.88952244  0.89019616  0.39154151
   0.64095434  0.64008558  0.64144699
   0.89103108  0.89076076  0.89134632
   0.99959237  0.00150112  0.99675172
   0.99938324  0.00003493  0.49763958
   0.25168038  0.24891337  0.74959517
   0.99749990  0.49794372  0.00086033
   0.00052440  0.49715140  0.50088067
   0.49988249  0.99738472  0.00090131
   0.49954620  0.50003968  0.99785757
   0.75097315  0.74942469  0.24984287
   0.49985523  0.50129758  0.49655071
   0.74940214  0.75095878  0.74802348
   0.05623360  0.18120304  0.36059596
   0.36055215  0.05618073  0.18135900
   0.18067803  0.36043515  0.05635112
   0.43164615  0.30579781  0.11007695
   0.10933811  0.43208088  0.30572184
   0.30616879  0.11038237  0.43144631
   0.05540035  0.18155956  0.86034038
   0.35943918  0.05639020  0.68203455
   0.18159346  0.36067916  0.55556672
   0.43176800  0.30520898  0.61104129
   0.11066152  0.43074915  0.80539644
   0.30515946  0.11079423  0.93190663
   0.05604537  0.68076856  0.36081137
   0.36061507  0.55618152  0.18081868
   0.18040413  0.86090372  0.05629587
   0.43096027  0.80670950  0.10983535
   0.11018018  0.93120277  0.30647725
   0.30631393  0.60963452  0.43142758
   0.05642617  0.67983109  0.86072292
   0.36082901  0.55621291  0.68039936
   0.18050111  0.86073339  0.55625759
   0.43105925  0.80638098  0.60992686
   0.10974163  0.93076687  0.80662904
   0.30592914  0.60973059  0.93157562
   0.55668960  0.18089021  0.36049958
   0.86099568  0.05588109  0.18065345
   0.68094161  0.36072792  0.05606070
   0.93094987  0.30643726  0.10970186
   0.61015919  0.43137998  0.30635721
   0.80662739  0.10979363  0.43135599
   0.55625493  0.18016866  0.86082204
   0.86060460  0.05601788  0.68054061
   0.68056339  0.36084158  0.55626059
   0.93128773  0.30623948  0.60979445
   0.61008613  0.43101265  0.80636497
   0.80623116  0.10929440  0.93147945
   0.55554077  0.68183433  0.36007734
   0.86007458  0.55634829  0.18046819
   0.68107200  0.86046774  0.05575260
   0.93136114  0.80492582  0.11095065
   0.61067752  0.93165297  0.30547765
   0.80503784  0.61074302  0.43111591
   0.55556968  0.68082022  0.86090541
   0.86059508  0.55581627  0.68050717
   0.68097931  0.85972506  0.55655493
   0.93138973  0.80539064  0.61084254
   0.61024363  0.93134011  0.80571432
   0.80584636  0.61083297  0.93009391
   0.24862253  0.24992729  0.24762435
   0.24806756  0.74806531  0.24849505
   0.24752603  0.74745881  0.74934160
   0.74730972  0.24776208  0.24918815
   0.49682629  0.99767190  0.50015434
   0.74834988  0.24827406  0.74832874
 
 position of ions in cartesian coordinates  (Angst):
  -0.00698566  0.00161889  3.84501451
   0.00512753 -0.00680100 10.79515246
  -2.57305518 -1.48631868  8.48535396
  -2.56266761 -1.48628657 15.40724952
   0.00273399  2.96391066  8.46355185
   0.00076818  2.96897683 15.38433799
  -2.56417214  1.47657025 13.05953151
  -2.56472606  1.48900690 20.00089151
   2.57856052 -1.47380156  8.46316398
   2.57142538 -1.47831947 15.41618358
   0.00965841 -2.96813705 13.06859727
   0.00896490 -2.96034335 20.00873350
   2.57278582  1.48809754 13.08047464
   2.56462103  1.48291542 19.99439391
   0.00071674 -0.00646979 17.70309931
   0.00289886 -0.00233055 24.61542438
   0.01720978 -5.91768430 18.39698204
   2.58205286 -4.44370545 13.78599464
  -2.55849689 -1.49487861 11.51180434
   5.12752434 -0.00655137 13.77955832
  -2.57108928  1.46305864  9.19468671
   2.56901361  4.43580674 13.79629942
  -2.55927019 -1.47663793 18.39285049
   2.58010345  1.47903978 16.11746613
   0.01952775  0.01849478 13.79151196
   0.01089322  0.01351377 20.70410772
  -1.56412495 -0.16173079  5.50665785
   0.92230467 -1.27508141  5.50764871
   0.64052188  1.43656101  5.50184218
   1.65505776  0.20772151  7.80464738
  -1.00825190  1.33323012  7.80067018
  -0.64297875 -1.53444566  7.80859995
  -4.13758287 -1.64108220 10.10364888
  -1.65737929 -2.75724058 10.10928288
  -1.92122322 -0.04707829 10.10903236
  -0.91976142 -1.28370031 12.41296135
  -3.57026209 -0.16233934 12.40133353
  -3.22102259 -3.01507162 12.41107067
  -1.56496686  2.80445299 10.10715174
   0.92664084  1.69518550 10.10750534
   0.64063297  4.40916475 10.10737082
   1.65400894  3.18473249 12.40874668
  -1.00657152  4.29211825 12.41153937
  -0.64090302  1.42958320 12.40712243
  -4.13304263  1.31331868 14.70494663
  -1.64058977  0.21128177 14.70963881
  -1.92915858  2.92327890 14.71007797
  -0.91644002  1.69751605 17.01121048
  -3.58009553  2.80568060 17.00861930
  -3.21412981 -0.05384421 17.00956154
   1.01050374 -1.64868164 10.11176493
   3.50000098 -2.76010801 10.10715349
   3.21515991 -0.04564663 10.10896724
   4.22519477 -1.26932737 12.40534552
   1.56449175 -0.15928135 12.41230348
   1.93163153 -3.02306042 12.41124596
  -1.56387835 -3.13733365 14.70782152
   0.92808309 -4.24250027 14.70750745
   0.64170037 -1.52914308 14.71210615
   1.65596930 -2.75647973 17.01122331
  -1.00641161 -1.64596898 17.01205453
  -0.64152927 -4.50991561 17.00787155
   1.00800248  1.33043239 14.71023603
   3.49745161  0.21479464 14.70551219
   3.21864864  2.92218094 14.70918031
   4.22212126  1.68561389 17.01095817
   1.57291511  2.81225740 17.01573722
   1.92592692 -0.04314794 17.00738418
  -1.56659523 -0.16283403 19.31252339
   0.92944033 -1.27472528 19.30950034
   0.64355846  1.43096345 19.31261008
   1.65233842  0.20390971 21.61824137
  -1.00102093  1.32628452 21.61477455
  -0.63514691 -1.52667919 21.60998330
   0.00639609  0.01077002  6.87109892
   0.00029551  2.96762043 11.46110385
  -2.57733032  1.47841241 16.06206141
   2.56338729 -1.48685948 11.45814486
  -0.01335216  2.96410061 18.36765559
   0.00267013 -2.96905509 16.06826064
 


--------------------------------------------------------------------------------------------------------


 k-point  1 :   0.0000 0.0000 0.0000  plane waves:   19845
 k-point  2 :   0.2500 0.0000 0.0000  plane waves:   19813
 k-point  3 :   0.5000 0.0000 0.0000  plane waves:   19854
 k-point  4 :  -0.0000 0.2500 0.0000  plane waves:   19811
 k-point  5 :   0.2500 0.2500 0.0000  plane waves:   19835
 k-point  6 :   0.5000 0.2500 0.0000  plane waves:   19826
 k-point  7 :  -0.2500 0.2500 0.0000  plane waves:   19833
 k-point  8 :  -0.0000 0.5000 0.0000  plane waves:   19846
 k-point  9 :   0.2500 0.5000 0.0000  plane waves:   19827
 k-point 10 :   0.5000 0.5000 0.0000  plane waves:   19816
 k-point 11 :   0.0000 0.0000 0.2500  plane waves:   19810
 k-point 12 :   0.2500 0.0000 0.2500  plane waves:   19836
 k-point 13 :   0.5000 0.0000 0.2500  plane waves:   19833
 k-point 14 :  -0.2500 0.0000 0.2500  plane waves:   19831
 k-point 15 :   0.0000 0.2500 0.2500  plane waves:   19837
 k-point 16 :   0.2500 0.2500 0.2500  plane waves:   19869
 k-point 17 :   0.5000 0.2500 0.2500  plane waves:   19815
 k-point 18 :  -0.2500 0.2500 0.2500  plane waves:   19835
 k-point 19 :   0.0000 0.5000 0.2500  plane waves:   19832
 k-point 20 :   0.2500 0.5000 0.2500  plane waves:   19815
 k-point 21 :   0.5000 0.5000 0.2500  plane waves:   19794
 k-point 22 :  -0.2500 0.5000 0.2500  plane waves:   19833
 k-point 23 :  -0.0000-0.2500 0.2500  plane waves:   19832
 k-point 24 :   0.2500-0.2500 0.2500  plane waves:   19836
 k-point 25 :   0.5000-0.2500 0.2500  plane waves:   19834
 k-point 26 :  -0.2500-0.2500 0.2500  plane waves:   19837
 k-point 27 :   0.0000 0.0000 0.5000  plane waves:   19844
 k-point 28 :   0.2500 0.0000 0.5000  plane waves:   19827
 k-point 29 :   0.5000 0.0000 0.5000  plane waves:   19816
 k-point 30 :   0.0000 0.2500 0.5000  plane waves:   19831
 k-point 31 :   0.2500 0.2500 0.5000  plane waves:   19817
 k-point 32 :   0.5000 0.2500 0.5000  plane waves:   19797
 k-point 33 :  -0.2500 0.2500 0.5000  plane waves:   19843
 k-point 34 :   0.0000 0.5000 0.5000  plane waves:   19814
 k-point 35 :   0.2500 0.5000 0.5000  plane waves:   19797
 k-point 36 :   0.5000 0.5000 0.5000  plane waves:   19808

 maximum and minimum number of plane-waves per node :     19869    19794

 maximum number of plane-waves:     19869
 maximum index in each direction: 
   IXMAX=   19   IYMAX=   19   IZMAX=   19
   IXMIN=  -19   IYMIN=  -19   IZMIN=  -19


 serial   3D FFT for wavefunctions
 parallel 3D FFT for charge:
    minimum data exchange during FFTs selected (reduces bandwidth)


 total amount of memory used by VASP MPI-rank0   163233. kBytes
=======================================================================

   base      :      30000. kBytes
   nonlr-proj:      68230. kBytes
   fftplans  :       3790. kBytes
   grid      :      24304. kBytes
   one-center:       1244. kBytes
   wavefun   :      35665. kBytes
 
     INWAV:  cpu time    0.0000: real time    0.0002
 Broyden mixing: mesh for mixing (old mesh)
   NGX = 39   NGY = 39   NGZ = 39
  (NGX  =160   NGY  =160   NGZ  =160)
  gives a total of  59319 points

 initial charge density was supplied:
 charge density of overlapping atoms calculated
 number of electron     464.0000000 magnetization 
 keeping initial charge density in first step


--------------------------------------------------------------------------------------------------------


 Maximum index for non-local projection operator        13334
 Maximum index for augmentation-charges          929 (set IRDMAX)


--------------------------------------------------------------------------------------------------------


 First call to EWALD:  gamma=   0.188
 Maximum number of real-space cells 3x 3x 3
 Maximum number of reciprocal cells 3x 3x 3

    FEWALD:  cpu time    0.0037: real time    0.0039


--------------------------------------- Iteration      1(   1)  ---------------------------------------


    POTLOK:  cpu time    0.0668: real time    0.1022
    SETDIJ:  cpu time    0.0132: real time    0.0132
     EDDAV:  cpu time   30.6890: real time   30.7049
 BZINTS: Fermi energy: 18.968010;464.000000 electrons
         Band energy:  83.961435;  BLOECHL correction: -0.034774
       DOS:  cpu time    0.0666: real time    0.0667
    --------------------------------------------
      LOOP:  cpu time   30.8356: real time   30.8869

 eigenvalue-minimisations  : 20736
 total energy-change (2. order) : 0.3508881E+04  (-0.2491307E+05)
 number of electron     464.0000000 magnetization 
 augmentation part      464.0000000 magnetization 

 Free energy of the ion-electron system (eV)
  ---------------------------------------------------
  alpha Z        PSCENC =      1631.38525256
  Ewald energy   TEWEN  =    -26746.99462426
  -Hartree energ DENC   =    -10662.03717147
  -exchange      EXHF   =         0.00000000
  -V(xc)+E(xc)   XCENC  =      1466.19479822
  PAW double counting   =     30201.20122080   -29545.67637776
  entropy T*S    EENTRO =         0.00000000
  eigenvalues    EBANDS =        83.96143497
  atomic energy  EATOM  =     37080.84622879
  Solvation  Ediel_sol  =         0.00000000
  ---------------------------------------------------
  free energy    TOTEN  =      3508.88076185 eV

  energy without entropy =     3508.88076185  energy(sigma->0) =     3508.88076185


--------------------------------------------------------------------------------------------------------




--------------------------------------- Iteration      1(   2)  ---------------------------------------


     EDDAV:  cpu time   48.9367: real time   48.9918
 BZINTS: Fermi energy:  0.833151;464.000000 electrons
         Band energy:***********;  BLOECHL correction:  0.000000
       DOS:  cpu time    0.0110: real time    0.0110
    --------------------------------------------
      LOOP:  cpu time   48.9477: real time   49.0028

 eigenvalue-minimisations  : 31104
 total energy-change (2. order) :-0.4110252E+04  (-0.4076828E+04)
 number of electron     464.0000000 magnetization 
 augmentation part      464.0000000 magnetization 

 Free energy of the ion-electron system (eV)
  ---------------------------------------------------
  alpha Z        PSCENC =      1631.38525256
  Ewald energy   TEWEN  =    -26746.99462426
  -Hartree energ DENC   =    -10662.03717147
  -exchange      EXHF   =         0.00000000
  -V(xc)+E(xc)   XCENC  =      1466.19479822
  PAW double counting   =     30201.20122080   -29545.67637776
  entropy T*S    EENTRO =         0.00000000
  eigenvalues    EBANDS =     -4026.29073322
  atomic energy  EATOM  =     37080.84622879
  Solvation  Ediel_sol  =         0.00000000
  ---------------------------------------------------
  free energy    TOTEN  =      -601.37140634 eV

  energy without entropy =     -601.37140634  energy(sigma->0) =     -601.37140634


--------------------------------------------------------------------------------------------------------




--------------------------------------- Iteration      1(   3)  ---------------------------------------


     EDDAV:  cpu time   55.9500: real time   56.0093
 BZINTS: Fermi energy:  0.238319;464.000000 electrons
         Band energy:***********;  BLOECHL correction:  0.000000
       DOS:  cpu time    0.0092: real time    0.0092
    --------------------------------------------
      LOOP:  cpu time   55.9592: real time   56.0185

 eigenvalue-minimisations  : 34560
 total energy-change (2. order) :-0.2037574E+03  (-0.2033938E+03)
 number of electron     464.0000000 magnetization 
 augmentation part      464.0000000 magnetization 

 Free energy of the ion-electron system (eV)
  ---------------------------------------------------
  alpha Z        PSCENC =      1631.38525256
  Ewald energy   TEWEN  =    -26746.99462426
  -Hartree energ DENC   =    -10662.03717147
  -exchange      EXHF   =         0.00000000
  -V(xc)+E(xc)   XCENC  =      1466.19479822
  PAW double counting   =     30201.20122080   -29545.67637776
  entropy T*S    EENTRO =         0.00000000
  eigenvalues    EBANDS =     -4230.04809102
  atomic energy  EATOM  =     37080.84622879
  Solvation  Ediel_sol  =         0.00000000
  ---------------------------------------------------
  free energy    TOTEN  =      -805.12876414 eV

  energy without entropy =     -805.12876414  energy(sigma->0) =     -805.12876414


--------------------------------------------------------------------------------------------------------




--------------------------------------- Iteration      1(   4)  ---------------------------------------


     EDDAV:  cpu time   53.6077: real time   53.6663
 BZINTS: Fermi energy:  0.220509;464.000000 electrons
         Band energy:***********;  BLOECHL correction:  0.000000
       DOS:  cpu time    0.0107: real time    0.0107
    --------------------------------------------
      LOOP:  cpu time   53.6184: real time   53.6771

 eigenvalue-minimisations  : 33504
 total energy-change (2. order) :-0.5933711E+01  (-0.5931668E+01)
 number of electron     464.0000000 magnetization 
 augmentation part      464.0000000 magnetization 

 Free energy of the ion-electron system (eV)
  ---------------------------------------------------
  alpha Z        PSCENC =      1631.38525256
  Ewald energy   TEWEN  =    -26746.99462426
  -Hartree energ DENC   =    -10662.03717147
  -exchange      EXHF   =         0.00000000
  -V(xc)+E(xc)   XCENC  =      1466.19479822
  PAW double counting   =     30201.20122080   -29545.67637776
  entropy T*S    EENTRO =         0.00000000
  eigenvalues    EBANDS =     -4235.98180209
  atomic energy  EATOM  =     37080.84622879
  Solvation  Ediel_sol  =         0.00000000
  ---------------------------------------------------
  free energy    TOTEN  =      -811.06247521 eV

  energy without entropy =     -811.06247521  energy(sigma->0) =     -811.06247521


--------------------------------------------------------------------------------------------------------




--------------------------------------- Iteration      1(   5)  ---------------------------------------


     EDDAV:  cpu time   60.5991: real time   60.6630
 BZINTS: Fermi energy:  0.230728;464.000000 electrons
         Band energy:***********;  BLOECHL correction:  0.000000
       DOS:  cpu time    0.0093: real time    0.0093
    CHARGE:  cpu time    1.0336: real time    1.0342
    MIXING:  cpu time    0.0012: real time    0.0013
    --------------------------------------------
      LOOP:  cpu time   61.6432: real time   61.7078

 eigenvalue-minimisations  : 36960
 total energy-change (2. order) :-0.1128392E+00  (-0.1128381E+00)
 number of electron     463.9999951 magnetization 
 augmentation part       51.7776634 magnetization 

 Broyden mixing:
  rms(total) = 0.10493E+02    rms(broyden)= 0.10492E+02
  rms(prec ) = 0.12412E+02
  weight for this iteration     100.00

 Free energy of the ion-electron system (eV)
  ---------------------------------------------------
  alpha Z        PSCENC =      1631.38525256
  Ewald energy   TEWEN  =    -26746.99462426
  -Hartree energ DENC   =    -10662.03717147
  -exchange      EXHF   =         0.00000000
  -V(xc)+E(xc)   XCENC  =      1466.19479822
  PAW double counting   =     30201.20122080   -29545.67637776
  entropy T*S    EENTRO =         0.00000000
  eigenvalues    EBANDS =     -4236.09464125
  atomic energy  EATOM  =     37080.84622879
  Solvation  Ediel_sol  =         0.00000000
  ---------------------------------------------------
  free energy    TOTEN  =      -811.17531438 eV

  energy without entropy =     -811.17531438  energy(sigma->0) =     -811.17531438


--------------------------------------------------------------------------------------------------------




--------------------------------------- Iteration      1(   6)  ---------------------------------------


    POTLOK:  cpu time    0.0537: real time    0.0744
    SETDIJ:  cpu time    0.0121: real time    0.0121
    EDDIAG:  cpu time    4.1389: real time    4.1410
  RMM-DIIS:  cpu time   14.8871: real time   14.8962
    ORTHCH:  cpu time    0.7546: real time    0.7550
 BZINTS: Fermi energy:  3.350422;464.000000 electrons
         Band energy:***********;  BLOECHL correction:  0.000000
       DOS:  cpu time    0.0109: real time    0.0109
    CHARGE:  cpu time    1.0309: real time    1.0314
    MIXING:  cpu time    0.0011: real time    0.0012
    --------------------------------------------
      LOOP:  cpu time   20.8894: real time   20.9222

 eigenvalue-minimisations  : 23626
 total energy-change (2. order) : 0.1212148E+03  (-0.6760098E+02)
 number of electron     463.9999964 magnetization 
 augmentation part       44.9784980 magnetization 

 Broyden mixing:
  rms(total) = 0.49311E+01    rms(broyden)= 0.49294E+01
  rms(prec ) = 0.50910E+01
  weight for this iteration     100.00

 eigenvalues of (default mixing * dielectric matrix)
  average eigenvalue GAMMA=   1.1008
  1.1008

 Free energy of the ion-electron system (eV)
  ---------------------------------------------------
  alpha Z        PSCENC =      1631.38525256
  Ewald energy   TEWEN  =    -26746.99462426
  -Hartree energ DENC   =    -11156.78495862
  -exchange      EXHF   =         0.00000000
  -V(xc)+E(xc)   XCENC  =      1519.98742480
  PAW double counting   =     36256.85352998   -35634.62445883
  entropy T*S    EENTRO =         0.00000000
  eigenvalues    EBANDS =     -3640.62888955
  atomic energy  EATOM  =     37080.84622879
  Solvation  Ediel_sol  =         0.00000000
  ---------------------------------------------------
  free energy    TOTEN  =      -689.96049513 eV

  energy without entropy =     -689.96049513  energy(sigma->0) =     -689.96049513


--------------------------------------------------------------------------------------------------------




--------------------------------------- Iteration      1(   7)  ---------------------------------------


    POTLOK:  cpu time    0.0467: real time    0.0669
    SETDIJ:  cpu time    0.0120: real time    0.0120
    EDDIAG:  cpu time    4.1404: real time    4.1427
  RMM-DIIS:  cpu time   16.4258: real time   16.4359
    ORTHCH:  cpu time    0.7601: real time    0.7607
 BZINTS: Fermi energy:  2.973656;464.000000 electrons
         Band energy:***********;  BLOECHL correction:  0.000000
       DOS:  cpu time    0.0106: real time    0.0106
    CHARGE:  cpu time    1.0275: real time    1.0279
    MIXING:  cpu time    0.0010: real time    0.0010
    --------------------------------------------
      LOOP:  cpu time   22.4241: real time   22.4576

 eigenvalue-minimisations  : 24591
 total energy-change (2. order) : 0.9383936E+01  (-0.3320074E+01)
 number of electron     463.9999963 magnetization 
 augmentation part       45.1994243 magnetization 

 Broyden mixing:
  rms(total) = 0.21810E+01    rms(broyden)= 0.21810E+01
  rms(prec ) = 0.22805E+01
  weight for this iteration     100.00

 eigenvalues of (default mixing * dielectric matrix)
  average eigenvalue GAMMA=   1.1566
  0.8975  1.4158

 Free energy of the ion-electron system (eV)
  ---------------------------------------------------
  alpha Z        PSCENC =      1631.38525256
  Ewald energy   TEWEN  =    -26746.99462426
  -Hartree energ DENC   =    -11021.56818149
  -exchange      EXHF   =         0.00000000
  -V(xc)+E(xc)   XCENC  =      1511.21905298
  PAW double counting   =     41436.29179949   -40804.32916994
  entropy T*S    EENTRO =         0.00000000
  eigenvalues    EBANDS =     -3767.42691702
  atomic energy  EATOM  =     37080.84622879
  Solvation  Ediel_sol  =         0.00000000
  ---------------------------------------------------
  free energy    TOTEN  =      -680.57655890 eV

  energy without entropy =     -680.57655890  energy(sigma->0) =     -680.57655890


--------------------------------------------------------------------------------------------------------




--------------------------------------- Iteration      1(   8)  ---------------------------------------


    POTLOK:  cpu time    0.0473: real time    0.0604
    SETDIJ:  cpu time    0.0114: real time    0.0114
    EDDIAG:  cpu time    4.1619: real time    4.1640
  RMM-DIIS:  cpu time   16.0773: real time   16.0870
    ORTHCH:  cpu time    0.7604: real time    0.7609
 BZINTS: Fermi energy:  2.727989;464.000000 electrons
         Band energy:***********;  BLOECHL correction:  0.000000
       DOS:  cpu time    0.0091: real time    0.0091
    CHARGE:  cpu time    1.0315: real time    1.0321
    MIXING:  cpu time    0.0011: real time    0.0011
    --------------------------------------------
      LOOP:  cpu time   22.1001: real time   22.1260

 eigenvalue-minimisations  : 25381
 total energy-change (2. order) : 0.1661312E+00  (-0.1184523E+01)
 number of electron     463.9999962 magnetization 
 augmentation part       45.4128043 magnetization 

 Broyden mixing:
  rms(total) = 0.86100E+00    rms(broyden)= 0.86086E+00
  rms(prec ) = 0.91255E+00
  weight for this iteration     100.00

 eigenvalues of (default mixing * dielectric matrix)
  average eigenvalue GAMMA=   1.3493
  2.1170  0.9654  0.9654

 Free energy of the ion-electron system (eV)
  ---------------------------------------------------
  alpha Z        PSCENC =      1631.38525256
  Ewald energy   TEWEN  =    -26746.99462426
  -Hartree energ DENC   =    -10977.34697977
  -exchange      EXHF   =         0.00000000
  -V(xc)+E(xc)   XCENC  =      1508.43451906
  PAW double counting   =     43694.48120940   -43050.31488022
  entropy T*S    EENTRO =         0.00000000
  eigenvalues    EBANDS =     -3820.90115328
  atomic energy  EATOM  =     37080.84622879
  Solvation  Ediel_sol  =         0.00000000
  ---------------------------------------------------
  free energy    TOTEN  =      -680.41042773 eV

  energy without entropy =     -680.41042773  energy(sigma->0) =     -680.41042773


--------------------------------------------------------------------------------------------------------




--------------------------------------- Iteration      1(   9)  ---------------------------------------


    POTLOK:  cpu time    0.0783: real time    0.0912
    SETDIJ:  cpu time    0.0129: real time    0.0129
    EDDIAG:  cpu time    4.1364: real time    4.1389
  RMM-DIIS:  cpu time   19.9509: real time   19.9647
    ORTHCH:  cpu time    0.7570: real time    0.7572
 BZINTS: Fermi energy:  2.886401;464.000000 electrons
         Band energy:***********;  BLOECHL correction:  0.000000
       DOS:  cpu time    0.0106: real time    0.0106
    CHARGE:  cpu time    1.0331: real time    1.0337
    MIXING:  cpu time    0.0011: real time    0.0011
    --------------------------------------------
      LOOP:  cpu time   25.9803: real time   26.0103

 eigenvalue-minimisations  : 32838
 total energy-change (2. order) : 0.7072900E-01  (-0.1977649E+00)
 number of electron     463.9999962 magnetization 
 augmentation part       45.1068637 magnetization 

 Broyden mixing:
  rms(total) = 0.26666E+00    rms(broyden)= 0.26663E+00
  rms(prec ) = 0.29879E+00
  weight for this iteration     100.00

 eigenvalues of (default mixing * dielectric matrix)
  average eigenvalue GAMMA=   1.4669
  2.3198  1.7332  0.9072  0.9072

 Free energy of the ion-electron system (eV)
  ---------------------------------------------------
  alpha Z        PSCENC =      1631.38525256
  Ewald energy   TEWEN  =    -26746.99462426
  -Hartree energ DENC   =    -11012.26659909
  -exchange      EXHF   =         0.00000000
  -V(xc)+E(xc)   XCENC  =      1511.31331148
  PAW double counting   =     45467.67265758   -44813.12570815
  entropy T*S    EENTRO =         0.00000000
  eigenvalues    EBANDS =     -3799.17021763
  atomic energy  EATOM  =     37080.84622879
  Solvation  Ediel_sol  =         0.00000000
  ---------------------------------------------------
  free energy    TOTEN  =      -680.33969873 eV

  energy without entropy =     -680.33969873  energy(sigma->0) =     -680.33969873


--------------------------------------------------------------------------------------------------------




--------------------------------------- Iteration      1(  10)  ---------------------------------------


    POTLOK:  cpu time    0.0498: real time    0.0606
    SETDIJ:  cpu time    0.0116: real time    0.0116
    EDDIAG:  cpu time    4.1504: real time    4.1529
  RMM-DIIS:  cpu time   18.7348: real time   18.7459
    ORTHCH:  cpu time    0.7573: real time    0.7578
 BZINTS: Fermi energy:  2.895424;464.000000 electrons
         Band energy:***********;  BLOECHL correction:  0.000000
       DOS:  cpu time    0.0106: real time    0.0106
    CHARGE:  cpu time    1.0336: real time    1.0343
    MIXING:  cpu time    0.0012: real time    0.0012
    --------------------------------------------
      LOOP:  cpu time   24.7492: real time   24.7749

 eigenvalue-minimisations  : 32508
 total energy-change (2. order) :-0.6199014E-03  (-0.4102653E-01)
 number of electron     463.9999962 magnetization 
 augmentation part       44.9420679 magnetization 

 Broyden mixing:
  rms(total) = 0.57016E-01    rms(broyden)= 0.56978E-01
  rms(prec ) = 0.64882E-01
  weight for this iteration     100.00

 eigenvalues of (default mixing * dielectric matrix)
  average eigenvalue GAMMA=   1.4232
  2.6139  1.8869  0.9328  0.9328  0.7494

 Free energy of the ion-electron system (eV)
  ---------------------------------------------------
  alpha Z        PSCENC =      1631.38525256
  Ewald energy   TEWEN  =    -26746.99462426
  -Hartree energ DENC   =    -11043.94034556
  -exchange      EXHF   =         0.00000000
  -V(xc)+E(xc)   XCENC  =      1512.76517603
  PAW double counting   =     45555.22934821   -44893.59012968
  entropy T*S    EENTRO =         0.00000000
  eigenvalues    EBANDS =     -3776.04122471
  atomic energy  EATOM  =     37080.84622879
  Solvation  Ediel_sol  =         0.00000000
  ---------------------------------------------------
  free energy    TOTEN  =      -680.34031863 eV

  energy without entropy =     -680.34031863  energy(sigma->0) =     -680.34031863


--------------------------------------------------------------------------------------------------------




--------------------------------------- Iteration      1(  11)  ---------------------------------------


    POTLOK:  cpu time    0.0564: real time    0.0706
    SETDIJ:  cpu time    0.0120: real time    0.0120
    EDDIAG:  cpu time    4.1523: real time    4.1545
  RMM-DIIS:  cpu time   18.9949: real time   19.0065
    ORTHCH:  cpu time    0.7670: real time    0.7675
 BZINTS: Fermi energy:  2.882625;464.000000 electrons
         Band energy:***********;  BLOECHL correction:  0.000000
       DOS:  cpu time    0.0106: real time    0.0106
    CHARGE:  cpu time    1.0309: real time    1.0314
    MIXING:  cpu time    0.0011: real time    0.0011
    --------------------------------------------
      LOOP:  cpu time   25.0252: real time   25.0543

 eigenvalue-minimisations  : 34329
 total energy-change (2. order) :-0.1231321E-01  (-0.1239046E-01)
 number of electron     463.9999962 magnetization 
 augmentation part       44.8738014 magnetization 

 Broyden mixing:
  rms(total) = 0.33709E-01    rms(broyden)= 0.33694E-01
  rms(prec ) = 0.37956E-01
  weight for this iteration     100.00

 eigenvalues of (default mixing * dielectric matrix)
  average eigenvalue GAMMA=   1.4817
  3.0623  1.9616  0.8946  0.8946  1.0387  1.0387

 Free energy of the ion-electron system (eV)
  ---------------------------------------------------
  alpha Z        PSCENC =      1631.38525256
  Ewald energy   TEWEN  =    -26746.99462426
  -Hartree energ DENC   =    -11048.20730884
  -exchange      EXHF   =         0.00000000
  -V(xc)+E(xc)   XCENC  =      1512.96468874
  PAW double counting   =     45617.99381289   -44953.99267459
  entropy T*S    EENTRO =         0.00000000
  eigenvalues    EBANDS =     -3774.34800712
  atomic energy  EATOM  =     37080.84622879
  Solvation  Ediel_sol  =         0.00000000
  ---------------------------------------------------
  free energy    TOTEN  =      -680.35263184 eV

  energy without entropy =     -680.35263184  energy(sigma->0) =     -680.35263184


--------------------------------------------------------------------------------------------------------




--------------------------------------- Iteration      1(  12)  ---------------------------------------


    POTLOK:  cpu time    0.0525: real time    0.0669
    SETDIJ:  cpu time    0.0119: real time    0.0119
    EDDIAG:  cpu time    4.1440: real time    4.1460
  RMM-DIIS:  cpu time   18.9266: real time   18.9386
    ORTHCH:  cpu time    0.7547: real time    0.7552
 BZINTS: Fermi energy:  2.864051;464.000000 electrons
         Band energy:***********;  BLOECHL correction:  0.000000
       DOS:  cpu time    0.0106: real time    0.0106
    CHARGE:  cpu time    1.0308: real time    1.0314
    MIXING:  cpu time    0.0011: real time    0.0011
    --------------------------------------------
      LOOP:  cpu time   24.9323: real time   24.9617

 eigenvalue-minimisations  : 34286
 total energy-change (2. order) :-0.3432133E-02  (-0.4403468E-02)
 number of electron     463.9999962 magnetization 
 augmentation part       44.8289666 magnetization 

 Broyden mixing:
  rms(total) = 0.26981E-01    rms(broyden)= 0.26977E-01
  rms(prec ) = 0.28698E-01
  weight for this iteration     100.00

 eigenvalues of (default mixing * dielectric matrix)
  average eigenvalue GAMMA=   1.5505
  3.2934  2.2271  1.3319  1.3319  0.9389  0.9389  0.7917

 Free energy of the ion-electron system (eV)
  ---------------------------------------------------
  alpha Z        PSCENC =      1631.38525256
  Ewald energy   TEWEN  =    -26746.99462426
  -Hartree energ DENC   =    -11049.28412520
  -exchange      EXHF   =         0.00000000
  -V(xc)+E(xc)   XCENC  =      1513.01914788
  PAW double counting   =     45641.20478317   -44975.32903861
  entropy T*S    EENTRO =         0.00000000
  eigenvalues    EBANDS =     -3775.20368829
  atomic energy  EATOM  =     37080.84622879
  Solvation  Ediel_sol  =         0.00000000
  ---------------------------------------------------
  free energy    TOTEN  =      -680.35606397 eV

  energy without entropy =     -680.35606397  energy(sigma->0) =     -680.35606397


--------------------------------------------------------------------------------------------------------




--------------------------------------- Iteration      1(  13)  ---------------------------------------


    POTLOK:  cpu time    0.0472: real time    0.0635
    SETDIJ:  cpu time    0.0117: real time    0.0117
    EDDIAG:  cpu time    4.1628: real time    4.1651
  RMM-DIIS:  cpu time   19.6816: real time   19.6943
    ORTHCH:  cpu time    0.7577: real time    0.7581
 BZINTS: Fermi energy:  2.843261;464.000000 electrons
         Band energy:***********;  BLOECHL correction:  0.000000
       DOS:  cpu time    0.0107: real time    0.0107
    CHARGE:  cpu time    1.0316: real time    1.0321
    MIXING:  cpu time    0.0012: real time    0.0012
    --------------------------------------------
      LOOP:  cpu time   25.7046: real time   25.7368

 eigenvalue-minimisations  : 34576
 total energy-change (2. order) :-0.9122111E-03  (-0.1627236E-02)
 number of electron     463.9999962 magnetization 
 augmentation part       44.8185062 magnetization 

 Broyden mixing:
  rms(total) = 0.78357E-02    rms(broyden)= 0.78270E-02
  rms(prec ) = 0.97470E-02
  weight for this iteration     100.00

 eigenvalues of (default mixing * dielectric matrix)
  average eigenvalue GAMMA=   1.5306
  2.8753  2.4691  1.6619  1.6619  0.9033  0.9033  0.9624  0.8074

 Free energy of the ion-electron system (eV)
  ---------------------------------------------------
  alpha Z        PSCENC =      1631.38525256
  Ewald energy   TEWEN  =    -26746.99462426
  -Hartree energ DENC   =    -11049.25258647
  -exchange      EXHF   =         0.00000000
  -V(xc)+E(xc)   XCENC  =      1512.96391793
  PAW double counting   =     45648.22820290   -44980.56200160
  entropy T*S    EENTRO =         0.00000000
  eigenvalues    EBANDS =     -3776.97136603
  atomic energy  EATOM  =     37080.84622879
  Solvation  Ediel_sol  =         0.00000000
  ---------------------------------------------------
  free energy    TOTEN  =      -680.35697618 eV

  energy without entropy =     -680.35697618  energy(sigma->0) =     -680.35697618


--------------------------------------------------------------------------------------------------------




--------------------------------------- Iteration      1(  14)  ---------------------------------------


    POTLOK:  cpu time    0.0824: real time    0.1007
    SETDIJ:  cpu time    0.0124: real time    0.0124
    EDDIAG:  cpu time    4.1352: real time    4.1376
  RMM-DIIS:  cpu time   18.9555: real time   18.9669
    ORTHCH:  cpu time    0.7555: real time    0.7560
 BZINTS: Fermi energy:  2.879383;464.000000 electrons
         Band energy:***********;  BLOECHL correction:  0.000000
       DOS:  cpu time    0.0091: real time    0.0091
    CHARGE:  cpu time    1.0314: real time    1.0318
    MIXING:  cpu time    0.0013: real time    0.0013
    --------------------------------------------
      LOOP:  cpu time   24.9828: real time   25.0157

 eigenvalue-minimisations  : 34352
 total energy-change (2. order) :-0.5707795E-03  (-0.7599670E-03)
 number of electron     463.9999962 magnetization 
 augmentation part       44.7967621 magnetization 

 Broyden mixing:
  rms(total) = 0.83417E-02    rms(broyden)= 0.83382E-02
  rms(prec ) = 0.96773E-02
  weight for this iteration     100.00

 eigenvalues of (default mixing * dielectric matrix)
  average eigenvalue GAMMA=   1.4581
  3.1568  2.5038  1.7425  1.7425  0.9056  0.9056  0.9050  0.7795  0.4820

 Free energy of the ion-electron system (eV)
  ---------------------------------------------------
  alpha Z        PSCENC =      1631.38525256
  Ewald energy   TEWEN  =    -26746.99462426
  -Hartree energ DENC   =    -11049.45429558
  -exchange      EXHF   =         0.00000000
  -V(xc)+E(xc)   XCENC  =      1512.99279844
  PAW double counting   =     45649.62583288   -44981.83537362
  entropy T*S    EENTRO =         0.00000000
  eigenvalues    EBANDS =     -3776.92336616
  atomic energy  EATOM  =     37080.84622879
  Solvation  Ediel_sol  =         0.00000000
  ---------------------------------------------------
  free energy    TOTEN  =      -680.35754696 eV

  energy without entropy =     -680.35754696  energy(sigma->0) =     -680.35754696


--------------------------------------------------------------------------------------------------------




--------------------------------------- Iteration      1(  15)  ---------------------------------------


    POTLOK:  cpu time    0.0483: real time    0.0684
    SETDIJ:  cpu time    0.0111: real time    0.0111
    EDDIAG:  cpu time    4.1396: real time    4.1422
  RMM-DIIS:  cpu time   19.9542: real time   19.9665
    ORTHCH:  cpu time    0.7627: real time    0.7632
 BZINTS: Fermi energy:  2.858830;464.000000 electrons
         Band energy:***********;  BLOECHL correction:  0.000000
       DOS:  cpu time    0.0090: real time    0.0090
    CHARGE:  cpu time    1.0313: real time    1.0318
    MIXING:  cpu time    0.0013: real time    0.0013
    --------------------------------------------
      LOOP:  cpu time   25.9576: real time   25.9935

 eigenvalue-minimisations  : 35030
 total energy-change (2. order) :-0.1873542E-03  (-0.2268901E-03)
 number of electron     463.9999962 magnetization 
 augmentation part       44.7883515 magnetization 

 Broyden mixing:
  rms(total) = 0.67149E-02    rms(broyden)= 0.67139E-02
  rms(prec ) = 0.77128E-02
  weight for this iteration     100.00

 eigenvalues of (default mixing * dielectric matrix)
  average eigenvalue GAMMA=   1.4588
  3.5666  2.5357  1.8021  1.8021  0.9120  0.9120  0.8581  0.7858  0.7067  0.7067

 Free energy of the ion-electron system (eV)
  ---------------------------------------------------
  alpha Z        PSCENC =      1631.38525256
  Ewald energy   TEWEN  =    -26746.99462426
  -Hartree energ DENC   =    -11049.79103578
  -exchange      EXHF   =         0.00000000
  -V(xc)+E(xc)   XCENC  =      1513.00242658
  PAW double counting   =     45651.80406308   -44983.73449827
  entropy T*S    EENTRO =         0.00000000
  eigenvalues    EBANDS =     -3776.87554701
  atomic energy  EATOM  =     37080.84622879
  Solvation  Ediel_sol  =         0.00000000
  ---------------------------------------------------
  free energy    TOTEN  =      -680.35773431 eV

  energy without entropy =     -680.35773431  energy(sigma->0) =     -680.35773431


--------------------------------------------------------------------------------------------------------




--------------------------------------- Iteration      1(  16)  ---------------------------------------


    POTLOK:  cpu time    0.0812: real time    0.0941
    SETDIJ:  cpu time    0.0129: real time    0.0129
    EDDIAG:  cpu time    4.1338: real time    4.1362
  RMM-DIIS:  cpu time   19.8839: real time   19.8957
    ORTHCH:  cpu time    0.7551: real time    0.7554
 BZINTS: Fermi energy:  2.837461;464.000000 electrons
         Band energy:***********;  BLOECHL correction:  0.000000
       DOS:  cpu time    0.0091: real time    0.0091
    CHARGE:  cpu time    1.0315: real time    1.0322
    MIXING:  cpu time    0.0014: real time    0.0014
    --------------------------------------------
      LOOP:  cpu time   25.9089: real time   25.9370

 eigenvalue-minimisations  : 34902
 total energy-change (2. order) :-0.7042841E-04  (-0.8601187E-04)
 number of electron     463.9999962 magnetization 
 augmentation part       44.7839228 magnetization 

 Broyden mixing:
  rms(total) = 0.31482E-02    rms(broyden)= 0.31475E-02
  rms(prec ) = 0.34415E-02
  weight for this iteration     100.00

 eigenvalues of (default mixing * dielectric matrix)
  average eigenvalue GAMMA=   1.5616
  3.6492  2.9692  2.3232  1.4978  1.4978  1.0112  1.0112  0.8605  0.8605  0.8808
  0.6158

 Free energy of the ion-electron system (eV)
  ---------------------------------------------------
  alpha Z        PSCENC =      1631.38525256
  Ewald energy   TEWEN  =    -26746.99462426
  -Hartree energ DENC   =    -11050.17512109
  -exchange      EXHF   =         0.00000000
  -V(xc)+E(xc)   XCENC  =      1513.01300668
  PAW double counting   =     45658.17706300   -44989.69979241
  entropy T*S    EENTRO =         0.00000000
  eigenvalues    EBANDS =     -3776.90981801
  atomic energy  EATOM  =     37080.84622879
  Solvation  Ediel_sol  =         0.00000000
  ---------------------------------------------------
  free energy    TOTEN  =      -680.35780474 eV

  energy without entropy =     -680.35780474  energy(sigma->0) =     -680.35780474


--------------------------------------------------------------------------------------------------------




--------------------------------------- Iteration      1(  17)  ---------------------------------------


    POTLOK:  cpu time    0.0479: real time    0.0669
    SETDIJ:  cpu time    0.0131: real time    0.0132
    EDDIAG:  cpu time    4.1420: real time    4.1455
  RMM-DIIS:  cpu time   19.8008: real time   19.9998
    ORTHCH:  cpu time    0.7720: real time    0.7725
 BZINTS: Fermi energy:  2.815949;464.000000 electrons
         Band energy:***********;  BLOECHL correction:  0.000000
       DOS:  cpu time    0.0090: real time    0.0090
    CHARGE:  cpu time    1.0321: real time    1.0327
    MIXING:  cpu time    0.0014: real time    0.0014
    --------------------------------------------
      LOOP:  cpu time   25.8184: real time   26.0409

 eigenvalue-minimisations  : 34836
 total energy-change (2. order) :-0.3563859E-04  (-0.3381886E-04)
 number of electron     463.9999962 magnetization 
 augmentation part       44.7811143 magnetization 

 Broyden mixing:
  rms(total) = 0.22730E-02    rms(broyden)= 0.22725E-02
  rms(prec ) = 0.23901E-02
  weight for this iteration     100.00

 eigenvalues of (default mixing * dielectric matrix)
  average eigenvalue GAMMA=   1.5206
  3.8889  2.7325  2.2935  1.6299  1.6299  1.0965  0.9096  0.9096  0.8769  0.8008
  0.8008  0.6786

 Free energy of the ion-electron system (eV)
  ---------------------------------------------------
  alpha Z        PSCENC =      1631.38525256
  Ewald energy   TEWEN  =    -26746.99462426
  -Hartree energ DENC   =    -11050.23925746
  -exchange      EXHF   =         0.00000000
  -V(xc)+E(xc)   XCENC  =      1513.01708193
  PAW double counting   =     45665.16298340   -44996.43490263
  entropy T*S    EENTRO =         0.00000000
  eigenvalues    EBANDS =     -3777.10060270
  atomic energy  EATOM  =     37080.84622879
  Solvation  Ediel_sol  =         0.00000000
  ---------------------------------------------------
  free energy    TOTEN  =      -680.35784038 eV

  energy without entropy =     -680.35784038  energy(sigma->0) =     -680.35784038


--------------------------------------------------------------------------------------------------------




--------------------------------------- Iteration      1(  18)  ---------------------------------------


    POTLOK:  cpu time    0.0579: real time    0.0703
    SETDIJ:  cpu time    0.0121: real time    0.0121
    EDDIAG:  cpu time    4.1422: real time    4.1444
WARNING in EDDRMM: call to ZHEGV failed, returncode =   8  4      2
  RMM-DIIS:  cpu time   18.4945: real time   18.5137
    ORTHCH:  cpu time    0.7623: real time    0.7625
 BZINTS: Fermi energy:  2.794047;464.000000 electrons
         Band energy:***********;  BLOECHL correction:  0.000000
       DOS:  cpu time    0.0090: real time    0.0090
    CHARGE:  cpu time    1.0312: real time    1.0318
    MIXING:  cpu time    0.0015: real time    0.0015
    --------------------------------------------
      LOOP:  cpu time   24.5107: real time   24.5454

 eigenvalue-minimisations  : 32891
 total energy-change (2. order) :-0.1128922E-04  (-0.1226669E-04)
 number of electron     463.9999962 magnetization 
 augmentation part       44.7791617 magnetization 

 Broyden mixing:
  rms(total) = 0.91778E-03    rms(broyden)= 0.91740E-03
  rms(prec ) = 0.92968E-03
  weight for this iteration     100.00

 eigenvalues of (default mixing * dielectric matrix)
  average eigenvalue GAMMA=   1.5248
[...]


--------------------------------------------------------------------------------------------------------


    POTLOK:  cpu time    0.0716: real time    0.0721


--------------------------------------------------------------------------------------------------------


 Quasi-Newton relaxation of ions (Broydens 2nd method)
  g(Force)  = 0.369E-04   g(Stress)= 0.135E-04

 retain information from N=  1 steps
 eigenvalues of (default step * inverse Hessian matrix)
  average eigenvalue of G=  17.9161
 eigenvalue spectrum of G is 17.9161


--------------------------------------------------------------------------------------------------------


    WAVPRE:  cpu time    0.0191: real time    0.0222
    FEWALD:  cpu time    0.0031: real time    0.0037
    GENKIN:  cpu time    0.2013: real time    0.2014
    ORTHCH:  cpu time    2.9142: real time    2.9158
     LOOP+:  cpu time  174.3714: real time  174.6050


--------------------------------------- Iteration      7(   1)  ---------------------------------------


    POTLOK:  cpu time    0.0648: real time    0.0690
    SETDIJ:  cpu time    0.0117: real time    0.0118
     EDDAV:  cpu time   42.3144: real time   42.3395
 BZINTS: Fermi energy:  2.821955;464.000000 electrons
         Band energy:***********;  BLOECHL correction:  0.000000
       DOS:  cpu time    0.0093: real time    0.0093
    CHARGE:  cpu time    1.0410: real time    1.0417
    MIXING:  cpu time    0.0010: real time    0.0010
    --------------------------------------------
      LOOP:  cpu time   43.4423: real time   43.4721

 eigenvalue-minimisations  : 27072
 total energy-change (2. order) : 0.4906435E-04  (-0.1985027E-01)
 number of electron     463.9999976 magnetization 
 augmentation part       44.7787937 magnetization 

  free energy =  -0.680367054832E+03  energy without entropy=  -0.680367054832E+03


--------------------------------------------------------------------------------------------------------




--------------------------------------- Iteration      7(   2)  ---------------------------------------


    POTLOK:  cpu time    0.0523: real time    0.0718
    SETDIJ:  cpu time    0.0134: real time    0.0134
    EDDIAG:  cpu time    4.1621: real time    4.1645
  RMM-DIIS:  cpu time   12.8412: real time   12.8484
    ORTHCH:  cpu time    0.7583: real time    0.7587
 BZINTS: Fermi energy:  2.822186;464.000000 electrons
         Band energy:***********;  BLOECHL correction:  0.000000
       DOS:  cpu time    0.0091: real time    0.0091
    CHARGE:  cpu time    1.0370: real time    1.0376
    MIXING:  cpu time    0.0009: real time    0.0009
    --------------------------------------------
      LOOP:  cpu time   18.8744: real time   18.9044

 eigenvalue-minimisations  : 22130
 total energy-change (2. order) :-0.2988304E-03  (-0.3809155E-03)
 number of electron     463.9999976 magnetization 
 augmentation part       44.7778891 magnetization 

 eigenvalues of (default mixing * dielectric matrix)
  average eigenvalue GAMMA=   1.1735
  1.1735

  free energy =  -0.680367353663E+03  energy without entropy=  -0.680367353663E+03


--------------------------------------------------------------------------------------------------------




--------------------------------------- Iteration      7(   3)  ---------------------------------------


    POTLOK:  cpu time    0.0509: real time    0.0669
    SETDIJ:  cpu time    0.0118: real time    0.0118
    EDDIAG:  cpu time    4.1494: real time    4.1518
  RMM-DIIS:  cpu time   16.2396: real time   16.2501
    ORTHCH:  cpu time    0.7561: real time    0.7567
 BZINTS: Fermi energy:  2.822453;464.000000 electrons
         Band energy:***********;  BLOECHL correction:  0.000000
       DOS:  cpu time    0.0091: real time    0.0091
    CHARGE:  cpu time    1.0381: real time    1.0387
    MIXING:  cpu time    0.0010: real time    0.0010
    --------------------------------------------
      LOOP:  cpu time   22.2559: real time   22.2860

 eigenvalue-minimisations  : 25944
 total energy-change (2. order) : 0.5304713E-04  (-0.2130631E-04)
 number of electron     463.9999976 magnetization 
 augmentation part       44.7771915 magnetization 

 eigenvalues of (default mixing * dielectric matrix)
  average eigenvalue GAMMA=   1.3135
  1.1436  1.4834

  free energy =  -0.680367300616E+03  energy without entropy=  -0.680367300616E+03


--------------------------------------------------------------------------------------------------------




--------------------------------------- Iteration      7(   4)  ---------------------------------------


    POTLOK:  cpu time    0.0469: real time    0.0601
    SETDIJ:  cpu time    0.0115: real time    0.0115
    EDDIAG:  cpu time    4.1551: real time    4.1580
  RMM-DIIS:  cpu time   17.0228: real time   17.0338
    ORTHCH:  cpu time    0.7579: real time    0.7583
 BZINTS: Fermi energy:  2.822580;464.000000 electrons
         Band energy:***********;  BLOECHL correction:  0.000000
       DOS:  cpu time    0.0091: real time    0.0091
    CHARGE:  cpu time    1.0388: real time    1.0394
    MIXING:  cpu time    0.0010: real time    0.0010
    --------------------------------------------
      LOOP:  cpu time   23.0431: real time   23.0712

 eigenvalue-minimisations  : 28098
 total energy-change (2. order) : 0.5763060E-05  (-0.5522042E-05)
 number of electron     463.9999976 magnetization 
 augmentation part       44.7766123 magnetization 

 eigenvalues of (default mixing * dielectric matrix)
  average eigenvalue GAMMA=   1.4620
  2.1681  1.0131  1.2047

  free energy =  -0.680367294853E+03  energy without entropy=  -0.680367294853E+03


--------------------------------------------------------------------------------------------------------




--------------------------------------- Iteration      7(   5)  ---------------------------------------


    POTLOK:  cpu time    0.0511: real time    0.0683
    SETDIJ:  cpu time    0.0117: real time    0.0117
    EDDIAG:  cpu time    4.1578: real time    4.1604
  RMM-DIIS:  cpu time   15.7086: real time   15.7344
    ORTHCH:  cpu time    0.7552: real time    0.7557
 BZINTS: Fermi energy:  2.822535;464.000000 electrons
         Band energy:***********;  BLOECHL correction:  0.000000
       DOS:  cpu time    0.0091: real time    0.0091
    --------------------------------------------
      LOOP:  cpu time   20.6935: real time   20.7396

 eigenvalue-minimisations  : 23801
 total energy-change (2. order) :-0.2338274E-06  (-0.8639637E-06)
 number of electron     463.9999976 magnetization 
 augmentation part       44.7766123 magnetization 

  free energy =  -0.680367295086E+03  energy without entropy=  -0.680367295086E+03


--------------------------------------------------------------------------------------------------------




------------------------ aborting loop because EDIFF is reached ----------------------------------------


    CHARGE:  cpu time    1.0384: real time    1.0391
    FORLOC:  cpu time    0.0125: real time    0.0125
    FORNL :  cpu time    6.7761: real time    6.7798
    STRESS:  cpu time   20.2673: real time   20.2777
    FORCOR:  cpu time    0.0409: real time    0.0410
    FORHAR:  cpu time    0.0182: real time    0.0182
    MIXING:  cpu time    0.0009: real time    0.0009
    OFIELD:  cpu time    0.0000: real time    0.0000

  FORCE on cell =-STRESS in cart. coord.  units (eV):
  Direction    XX          YY          ZZ          XY          YZ          ZX
  --------------------------------------------------------------------------------------
  Alpha Z  1631.38525  1631.38525  1631.38525
  Ewald   -8849.60285 -8779.10627 -9088.50392    47.79676   -36.92033    92.07867
  Hartree  3639.57641  3707.68505  3733.90032    41.20579   -35.15619    83.91945
  E(xc)   -2186.37731 -2186.40070 -2184.00821     0.07915    -0.01835     0.00290
  Local   -2698.45261 -2836.97143 -2563.39541   -89.25350    72.10622  -176.14697
  n-local -1207.28623 -1207.06970 -1196.38677    -0.54027     0.03884    -0.22686
  augment   515.40298   515.36693   511.87942     0.07900    -0.00756     0.01875
  Kinetic  9151.32451  9151.09237  9150.84877     0.62826    -0.04052     0.34794
  Fock        0.00000     0.00000     0.00000     0.00000     0.00000     0.00000
  -------------------------------------------------------------------------------------
  Total      -4.02984    -4.01850    -4.28055    -0.00481     0.00210    -0.00612
  in kB      -7.65463    -7.63309    -8.13085    -0.00914     0.00399    -0.01162
  external pressure =       -7.81 kB  Pullay stress =        0.00 kB



--------------------------------------------------------------------------------------------------------



  FREE ENERGIE OF THE ION-ELECTRON SYSTEM (eV)
  ---------------------------------------------------
  free  energy   TOTEN  =      -680.36729509 eV

  energy  without entropy=     -680.36729509  energy(sigma->0) =     -680.36729509
 
 d Force = 0.1363809E-03[ 0.388E-04, 0.234E-03]  d Energy = 0.1910048E-03-0.546E-04
 d Force =-0.3357915E+01[-0.336E+01,-0.336E+01]  d Ewald  =-0.3317017E+01-0.409E-01


--------------------------------------------------------------------------------------------------------


    POTLOK:  cpu time    0.0629: real time    0.0629


--------------------------------------------------------------------------------------------------------


 Quasi-Newton relaxation of ions (Broydens 2nd method)
  g(Force)  = 0.942E-05   g(Stress)= 0.796E-05

 retain information from N=  1 steps
 eigenvalues of (default step * inverse Hessian matrix)
  average eigenvalue of G=  15.1706
 eigenvalue spectrum of G is 15.1706


--------------------------------------------------------------------------------------------------------


    WAVPRE:  cpu time    0.0191: real time    0.0221
    FEWALD:  cpu time    0.0026: real time    0.0026
    GENKIN:  cpu time    0.2016: real time    0.2016
    ORTHCH:  cpu time    2.9175: real time    2.9191
     LOOP+:  cpu time  159.7580: real time  159.9961


--------------------------------------- Iteration      8(   1)  ---------------------------------------


    POTLOK:  cpu time    0.0700: real time    0.0761
    SETDIJ:  cpu time    0.0125: real time    0.0125
     EDDAV:  cpu time   43.4249: real time   43.4530
 BZINTS: Fermi energy:  2.822811;464.000000 electrons
         Band energy:***********;  BLOECHL correction:  0.000000
       DOS:  cpu time    0.0091: real time    0.0091
    CHARGE:  cpu time    1.0373: real time    1.0380
    MIXING:  cpu time    0.0008: real time    0.0008
    --------------------------------------------
      LOOP:  cpu time   44.5546: real time   44.5894

 eigenvalue-minimisations  : 27648
 total energy-change (2. order) : 0.3837215E-04  (-0.5357316E-02)
 number of electron     463.9999979 magnetization 
 augmentation part       44.7779205 magnetization 

  free energy =  -0.680367256480E+03  energy without entropy=  -0.680367256480E+03


--------------------------------------------------------------------------------------------------------




--------------------------------------- Iteration      8(   2)  ---------------------------------------


    POTLOK:  cpu time    0.0566: real time    0.0678
    SETDIJ:  cpu time    0.0123: real time    0.0123
    EDDIAG:  cpu time    4.1523: real time    4.1545
  RMM-DIIS:  cpu time   13.5165: real time   13.5246
    ORTHCH:  cpu time    0.7869: real time    0.7871
 BZINTS: Fermi energy:  2.822822;464.000000 electrons
         Band energy:***********;  BLOECHL correction:  0.000000
       DOS:  cpu time    0.0090: real time    0.0090
    CHARGE:  cpu time    1.0377: real time    1.0383
    MIXING:  cpu time    0.0010: real time    0.0010
    --------------------------------------------
      LOOP:  cpu time   19.5724: real time   19.5945

 eigenvalue-minimisations  : 22820
 total energy-change (2. order) :-0.8035859E-04  (-0.1112499E-03)
 number of electron     463.9999979 magnetization 
 augmentation part       44.7773437 magnetization 

 eigenvalues of (default mixing * dielectric matrix)
  average eigenvalue GAMMA=   1.2090
  1.2090

  free energy =  -0.680367336839E+03  energy without entropy=  -0.680367336839E+03


--------------------------------------------------------------------------------------------------------




--------------------------------------- Iteration      8(   3)  ---------------------------------------


    POTLOK:  cpu time    0.0519: real time    0.0685
    SETDIJ:  cpu time    0.0118: real time    0.0118
    EDDIAG:  cpu time    4.1594: real time    4.1620
  RMM-DIIS:  cpu time   16.3887: real time   16.3984
    ORTHCH:  cpu time    0.7575: real time    0.7580
 BZINTS: Fermi energy:  2.822918;464.000000 electrons
         Band energy:***********;  BLOECHL correction:  0.000000
       DOS:  cpu time    0.0091: real time    0.0091
    CHARGE:  cpu time    1.0358: real time    1.0362
    MIXING:  cpu time    0.0010: real time    0.0010
    --------------------------------------------
      LOOP:  cpu time   22.4151: real time   22.4448

 eigenvalue-minimisations  : 26713
 total energy-change (2. order) : 0.1938313E-04  (-0.6459752E-05)
 number of electron     463.9999979 magnetization 
 augmentation part       44.7769965 magnetization 

 eigenvalues of (default mixing * dielectric matrix)
  average eigenvalue GAMMA=   1.3784
  1.1514  1.6053

  free energy =  -0.680367317456E+03  energy without entropy=  -0.680367317456E+03


--------------------------------------------------------------------------------------------------------




--------------------------------------- Iteration      8(   4)  ---------------------------------------


    POTLOK:  cpu time    0.0501: real time    0.0673
    SETDIJ:  cpu time    0.0119: real time    0.0119
    EDDIAG:  cpu time    4.1519: real time    4.1544
  RMM-DIIS:  cpu time   17.3568: real time   17.3674
    ORTHCH:  cpu time    1.9648: real time    2.0022
 BZINTS: Fermi energy:  2.822942;464.000000 electrons
         Band energy:***********;  BLOECHL correction:  0.000000
       DOS:  cpu time    0.0092: real time    0.0095
    CHARGE:  cpu time    1.0376: real time    1.0392
    MIXING:  cpu time    0.0010: real time    0.0010
    --------------------------------------------
      LOOP:  cpu time   24.5832: real time   24.6529

 eigenvalue-minimisations  : 28196
 total energy-change (2. order) : 0.1778491E-05  (-0.1760965E-05)
 number of electron     463.9999979 magnetization 
 augmentation part       44.7767188 magnetization 

 eigenvalues of (default mixing * dielectric matrix)
  average eigenvalue GAMMA=   1.4741
  2.0601  1.0105  1.3516

  free energy =  -0.680367315677E+03  energy without entropy=  -0.680367315677E+03


--------------------------------------------------------------------------------------------------------




--------------------------------------- Iteration      8(   5)  ---------------------------------------


    POTLOK:  cpu time    0.0479: real time    0.0665
    SETDIJ:  cpu time    0.0119: real time    0.0119
    EDDIAG:  cpu time    4.1440: real time    4.1467
  RMM-DIIS:  cpu time    9.8809: real time    9.8859
    ORTHCH:  cpu time    0.7803: real time    0.7804
 BZINTS: Fermi energy:  2.822897;464.000000 electrons
         Band energy:***********;  BLOECHL correction:  0.000000
       DOS:  cpu time    0.0093: real time    0.0093
    --------------------------------------------
      LOOP:  cpu time   14.8742: real time   14.9006

 eigenvalue-minimisations  : 14103
 total energy-change (2. order) :-0.1043227E-06  (-0.2159995E-06)
 number of electron     463.9999979 magnetization 
 augmentation part       44.7767188 magnetization 

  free energy =  -0.680367315782E+03  energy without entropy=  -0.680367315782E+03


--------------------------------------------------------------------------------------------------------




------------------------ aborting loop because EDIFF is reached ----------------------------------------


    CHARGE:  cpu time    1.0393: real time    1.0400
    FORLOC:  cpu time    0.0132: real time    0.0132
    FORNL :  cpu time    6.7907: real time    6.7943
    STRESS:  cpu time   20.2804: real time   20.2915
    FORCOR:  cpu time    0.0405: real time    0.0405
    FORHAR:  cpu time    0.0183: real time    0.0183
    MIXING:  cpu time    0.0009: real time    0.0009
    OFIELD:  cpu time    0.0000: real time    0.0000

  FORCE on cell =-STRESS in cart. coord.  units (eV):
  Direction    XX          YY          ZZ          XY          YZ          ZX
  --------------------------------------------------------------------------------------
  Alpha Z  1631.38525  1631.38525  1631.38525
  Ewald   -8849.56198 -8779.04320 -9087.00056    47.84229   -36.91217    92.08893
  Hartree  3639.95035  3708.04434  3734.83604    41.23995   -35.15177    83.90862
  E(xc)   -2186.39253 -2186.41544 -2184.02873     0.07886    -0.01836     0.00255
  Local   -2698.85781 -2837.38357 -2565.77736   -89.33208    72.09331  -176.14509
  n-local -1207.24832 -1207.03486 -1196.38005    -0.53783     0.03756    -0.22627
  augment   515.39634   515.36049   511.88256     0.07913    -0.00750     0.01898
  Kinetic  9151.36607  9151.13139  9150.96063     0.63103    -0.03980     0.35049
  Fock        0.00000     0.00000     0.00000     0.00000     0.00000     0.00000
  -------------------------------------------------------------------------------------
  Total      -3.96263    -3.95560    -4.12221     0.00135     0.00126    -0.00179
  in kB      -7.52697    -7.51361    -7.83009     0.00256     0.00240    -0.00340
  external pressure =       -7.62 kB  Pullay stress =        0.00 kB



--------------------------------------------------------------------------------------------------------



  FREE ENERGIE OF THE ION-ELECTRON SYSTEM (eV)
  ---------------------------------------------------
  free  energy   TOTEN  =      -680.36731578 eV

  energy  without entropy=     -680.36731578  energy(sigma->0) =     -680.36731578
 
 d Force =-0.1073525E-05[-0.298E-04, 0.277E-04]  d Energy = 0.2069531E-04-0.218E-04
 d Force =-0.1635970E+01[-0.164E+01,-0.164E+01]  d Ewald  =-0.1607288E+01-0.287E-01


--------------------------------------------------------------------------------------------------------


    POTLOK:  cpu time    0.0678: real time    0.0682


--------------------------------------------------------------------------------------------------------


 Quasi-Newton relaxation of ions (Broydens 2nd method)
  g(Force)  = 0.601E-05   g(Stress)= 0.322E-05

 retain information from N=  1 steps
 eigenvalues of (default step * inverse Hessian matrix)
  average eigenvalue of G=   9.3103
 eigenvalue spectrum of G is  9.3103


--------------------------------------------------------------------------------------------------------


  
 reached required accuracy - stopping structural energy minimisation
     LOOP+:  cpu time  154.3354: real time  154.6018
    4ORBIT:  cpu time    0.0000: real time    0.0000

 total amount of memory used by VASP MPI-rank0   163233. kBytes
=======================================================================

   base      :      30000. kBytes
   nonlr-proj:      68230. kBytes
   fftplans  :       3790. kBytes
   grid      :      24304. kBytes
   one-center:       1244. kBytes
   wavefun   :      35665. kBytes
 
  
  
 General timing and accounting informations for this job:
 ========================================================
  
                  Total CPU time used (sec):     2086.767
                            User time (sec):     2083.150
                          System time (sec):        3.618
                         Elapsed time (sec):     2091.705
  
                   Maximum memory used (kb):      406424.
                   Average memory used (kb):           0.
  
                          Minor page faults:       654088
                          Major page faults:            0
                 Voluntary context switches:        25873
