<?xml version="1.0" encoding="ISO-8859-1"?>
<modeling>
 <generator>
  <i name="program" type="string">vasp </i>
  <i name="version" type="string">5.4.4.18Apr17-6-g9f103f2a35  </i>
  <i name="subversion" type="string">(build Mar 05 2020 17:21:05) complex            parallel </i>
  <i name="platform" type="string">Linux justhpc1_p2018-05-16 </i>
  <i name="date" type="string">2024 04 10 </i>
  <i name="time" type="string">22:58:25 </i>
 </generator>
 <incar>
  <i type="string" name="SYSTEM"> Li(NbTa)O_3</i>
  <i type="int" name="ISTART">     0</i>
  <i type="string" name="PREC">accurate</i>
  <i type="string" name="ALGO">  Fast</i>
  <i name="AMIX">      0.40000000</i>
  <i name="AMIN">      0.10000000</i>
  <i type="int" name="ICHARG">     2</i>
  <i type="int" name="INIWAV">     1</i>
  <i type="int" name="NELM">  1000</i>
  <i type="int" name="NELMIN">     4</i>
  <i type="int" name="IBRION">     1</i>
  <i name="EDIFF">      0.00000100</i>
  <i name="EDIFFG">     -0.00500000</i>
  <i type="int" name="NSW">   200</i>
  <i type="int" name="ISIF">     4</i>
  <i name="ENCUT">    475.00000000</i>
  <i name="POTIM">      0.15000000</i>
  <i type="string" name="LREAL">    A</i>
  <i type="int" name="ISMEAR">    -5</i>
  <i name="SIGMA">      0.05000000</i>
  <i type="int" name="NWRITE">     0</i>
  <i type="logical" name="LWAVE"> F  </i>
  <i type="logical" name="LCHARG"> F  </i>
  <i type="logical" name="LVTOT"> F  </i>
  <i type="logical" name="LVHAR"> F  </i>
  <i type="logical" name="LELF"> F  </i>
  <v type="int" name="KPOINT_BSE">    -1     0     0     0</v>
  <i type="int" name="NELM">  1000</i>
  <i type="string" name="GGA"> PS</i>
 </incar>
 <structure name="primitive_cell" >
  <crystal>
   <varray name="basis" >
    <v>       5.14357707      -2.96805212       9.20935144 </v>
    <v>       0.00246955       5.93768908       9.20848994 </v>
    <v>      -5.14097364      -2.96940062       9.20746997 </v>
   </varray>
   <i name="volume">    843.47881204 </i>
   <varray name="rec_basis" >
    <v>       0.09723397      -0.05615238       0.03618131 </v>
    <v>      -0.00002134       0.11227830       0.03619773 </v>
    <v>      -0.09723249      -0.05612688       0.03621702 </v>
   </varray>
  </crystal>
  <varray name="positions" >
   <v>       0.13834752       0.13936271       0.13984335 </v>
   <v>       0.30515946       0.11079423      -0.06809337 </v>
   <v>       0.11018018      -0.06879723       0.30647725 </v>
   <v>      -0.06905013       0.30643726       0.10970186 </v>
   <v>       0.05623360       0.18120304       0.36059596 </v>
   <v>       0.18067803       0.36043515       0.05635112 </v>
   <v>       0.36055215       0.05618073       0.18135900 </v>
   <v>       0.24862253       0.24992729       0.24762435 </v>
   <v>      -0.00061676       0.00003493       0.49763958 </v>
   <v>      -0.00250010       0.49794372       0.00086033 </v>
   <v>       0.49988249      -0.00261528       0.00090131 </v>
   <v>      -0.19337261       0.10979363       0.43135599 </v>
   <v>       0.43096027      -0.19329050       0.10983535 </v>
   <v>       0.11066152       0.43074915      -0.19460356 </v>
   <v>       0.25168038       0.24891337      -0.25040483 </v>
   <v>      -0.25269028       0.24776208       0.24918815 </v>
   <v>       0.24806756      -0.25193469       0.24849505 </v>
   <v>      -0.13900432       0.05588109       0.18065345 </v>
   <v>       0.18040413      -0.13909628       0.05629587 </v>
   <v>       0.05540035       0.18155956      -0.13965962 </v>
   <v>      -0.10895576       0.39188824      -0.11006009 </v>
   <v>       0.39066873      -0.10877522      -0.10982588 </v>
   <v>      -0.11047756      -0.10980384       0.39154151 </v>
   <v>       0.38998511      -0.10977024       0.39046082 </v>
   <v>      -0.10918121       0.39199278       0.39127564 </v>
   <v>       0.39173469       0.39088444      -0.10940012 </v>
   <v>      -0.00040763       0.00150112      -0.00324828 </v>
   <v>      -0.13992542      -0.44365171       0.18046819 </v>
   <v>       0.18050111      -0.13926661      -0.44374241 </v>
   <v>      -0.44374507       0.18016866      -0.13917796 </v>
   <v>       0.10933811       0.43208088       0.30572184 </v>
   <v>       0.30616879       0.11038237       0.43144631 </v>
   <v>       0.43164615       0.30579781       0.11007695 </v>
   <v>      -0.06861027      -0.19460936      -0.38915746 </v>
   <v>      -0.19415364      -0.38916703      -0.06990609 </v>
   <v>      -0.38975637      -0.06865989      -0.19428568 </v>
   <v>       0.35943918       0.05639020      -0.31796545 </v>
   <v>      -0.31905839       0.36072792       0.05606070 </v>
   <v>       0.05604537      -0.31923144       0.36081137 </v>
   <v>      -0.38984081       0.43137998       0.30635721 </v>
   <v>       0.43176800       0.30520898      -0.38895871 </v>
   <v>       0.30631393      -0.39036548       0.43142758 </v>
   <v>      -0.13939540       0.05601788      -0.31945939 </v>
   <v>       0.05642617      -0.32016891      -0.13927708 </v>
   <v>      -0.31892800      -0.13953226       0.05575260 </v>
   <v>      -0.44445923      -0.31816567       0.36007734 </v>
   <v>      -0.31943661       0.36084158      -0.44373941 </v>
   <v>       0.36082901      -0.44378709      -0.31960064 </v>
   <v>      -0.35955392       0.13979598      -0.36104116 </v>
   <v>      -0.36012932      -0.35949036       0.14005521 </v>
   <v>       0.14027342      -0.36143308      -0.36057710 </v>
   <v>      -0.44331040       0.18089021       0.36049958 </v>
   <v>       0.36061507      -0.44381848       0.18081868 </v>
   <v>       0.18159346       0.36067916      -0.44443328 </v>
   <v>      -0.06871227       0.30623948      -0.39020555 </v>
   <v>       0.30592914      -0.39026941      -0.06842438 </v>
   <v>      -0.38932248      -0.06834703       0.30547765 </v>
   <v>       0.14028321       0.14032414      -0.35907876 </v>
   <v>      -0.36031050       0.14081636       0.13851063 </v>
   <v>       0.14005761      -0.36085585       0.13990376 </v>
   <v>      -0.19376884       0.10929440      -0.06852055 </v>
   <v>       0.10974163      -0.06923313      -0.19337096 </v>
   <v>      -0.06863886      -0.19507418       0.11095065 </v>
   <v>      -0.31902069      -0.14027494      -0.44344507 </v>
   <v>      -0.13940492      -0.44418373      -0.31949283 </v>
   <v>      -0.44443032      -0.31917978      -0.13909459 </v>
   <v>      -0.19496216      -0.38925698       0.43111591 </v>
   <v>       0.43105925      -0.19361902      -0.39007314 </v>
   <v>      -0.38991387       0.43101265      -0.19363503 </v>
   <v>       0.24752603      -0.25254119      -0.25065840 </v>
   <v>      -0.25165012       0.24827406      -0.25167126 </v>
   <v>       0.49985523      -0.49870242       0.49655071 </v>
   <v>      -0.24902685      -0.25057531       0.24984287 </v>
   <v>       0.49682629      -0.00232810      -0.49984566 </v>
   <v>       0.00052440       0.49715140      -0.49911933 </v>
   <v>       0.49954620      -0.49996032      -0.00214243 </v>
   <v>      -0.25059786      -0.24904122      -0.25197652 </v>
   <v>       0.39146324       0.38999630       0.39085144 </v>
   <v>      -0.10896892      -0.10923924      -0.10865368 </v>
   <v>      -0.35904566      -0.35991442      -0.35855301 </v>
  </varray>
 </structure>
 <varray name="primitive_index" >
  <v type="int" >        1 </v>
  <v type="int" >       38 </v>
  <v type="int" >       43 </v>
  <v type="int" >       54 </v>
  <v type="int" >       27 </v>
  <v type="int" >       29 </v>
  <v type="int" >       28 </v>
  <v type="int" >       75 </v>
  <v type="int" >       18 </v>
  <v type="int" >       20 </v>
  <v type="int" >       22 </v>
  <v type="int" >       56 </v>
  <v type="int" >       42 </v>
  <v type="int" >       37 </v>
  <v type="int" >       19 </v>
  <v type="int" >       78 </v>
  <v type="int" >       76 </v>
  <v type="int" >       52 </v>
  <v type="int" >       41 </v>
  <v type="int" >       33 </v>
  <v type="int" >       12 </v>
  <v type="int" >        8 </v>
  <v type="int" >       14 </v>
  <v type="int" >        6 </v>
  <v type="int" >       10 </v>
  <v type="int" >        4 </v>
  <v type="int" >       17 </v>
  <v type="int" >       64 </v>
  <v type="int" >       47 </v>
  <v type="int" >       57 </v>
  <v type="int" >       31 </v>
  <v type="int" >       32 </v>
  <v type="int" >       30 </v>
  <v type="int" >       72 </v>
  <v type="int" >       74 </v>
  <v type="int" >       73 </v>
  <v type="int" >       34 </v>
  <v type="int" >       53 </v>
  <v type="int" >       39 </v>
  <v type="int" >       55 </v>
  <v type="int" >       36 </v>
  <v type="int" >       44 </v>
  <v type="int" >       58 </v>
  <v type="int" >       45 </v>
  <v type="int" >       65 </v>
  <v type="int" >       63 </v>
  <v type="int" >       59 </v>
  <v type="int" >       46 </v>
  <v type="int" >       11 </v>
  <v type="int" >       13 </v>
  <v type="int" >        7 </v>
  <v type="int" >       51 </v>
  <v type="int" >       40 </v>
  <v type="int" >       35 </v>
  <v type="int" >       60 </v>
  <v type="int" >       50 </v>
  <v type="int" >       67 </v>
  <v type="int" >        3 </v>
  <v type="int" >        9 </v>
  <v type="int" >        5 </v>
  <v type="int" >       62 </v>
  <v type="int" >       49 </v>
  <v type="int" >       66 </v>
  <v type="int" >       71 </v>
  <v type="int" >       70 </v>
  <v type="int" >       69 </v>
  <v type="int" >       68 </v>
  <v type="int" >       48 </v>
  <v type="int" >       61 </v>
  <v type="int" >       77 </v>
  <v type="int" >       80 </v>
  <v type="int" >       25 </v>
  <v type="int" >       24 </v>
  <v type="int" >       79 </v>
  <v type="int" >       21 </v>
  <v type="int" >       23 </v>
  <v type="int" >       26 </v>
  <v type="int" >        2 </v>
  <v type="int" >       16 </v>
  <v type="int" >       15 </v>
 </varray>
 <kpoints>
  <generation param="Gamma">
   <v type="int" name="divisions">       4        4        4 </v>
   <v name="usershift">      0.00000000       0.00000000       0.00000000 </v>
   <v name="genvec1">      0.25000000       0.00000000      -0.00000000 </v>
   <v name="genvec2">      0.00000000       0.25000000      -0.00000000 </v>
   <v name="genvec3">      0.00000000       0.00000000       0.25000000 </v>
   <v name="shift">      0.00000000       0.00000000       0.00000000 </v>
  </generation>
  <varray name="kpointlist" >
   <v>       0.00000000       0.00000000       0.00000000 </v>
   <v>       0.25000000       0.00000000       0.00000000 </v>
   <v>       0.50000000       0.00000000       0.00000000 </v>
   <v>      -0.00000000       0.25000000       0.00000000 </v>
   <v>       0.25000000       0.25000000       0.00000000 </v>
   <v>       0.50000000       0.25000000       0.00000000 </v>
   <v>      -0.25000000       0.25000000       0.00000000 </v>
   <v>      -0.00000000       0.50000000       0.00000000 </v>
   <v>       0.25000000       0.50000000       0.00000000 </v>
   <v>       0.50000000       0.50000000       0.00000000 </v>
   <v>       0.00000000       0.00000000       0.25000000 </v>
   <v>       0.25000000       0.00000000       0.25000000 </v>
   <v>       0.50000000       0.00000000       0.25000000 </v>
   <v>      -0.25000000       0.00000000       0.25000000 </v>
   <v>       0.00000000       0.25000000       0.25000000 </v>
   <v>       0.25000000       0.25000000       0.25000000 </v>
   <v>       0.50000000       0.25000000       0.25000000 </v>
   <v>      -0.25000000       0.25000000       0.25000000 </v>
   <v>       0.00000000       0.50000000       0.25000000 </v>
   <v>       0.25000000       0.50000000       0.25000000 </v>
   <v>       0.50000000       0.50000000       0.25000000 </v>
   <v>      -0.25000000       0.50000000       0.25000000 </v>
   <v>      -0.00000000      -0.25000000       0.25000000 </v>
   <v>       0.25000000      -0.25000000       0.25000000 </v>
   <v>       0.50000000      -0.25000000       0.25000000 </v>
   <v>      -0.25000000      -0.25000000       0.25000000 </v>
   <v>       0.00000000       0.00000000       0.50000000 </v>
   <v>       0.25000000       0.00000000       0.50000000 </v>
   <v>       0.50000000       0.00000000       0.50000000 </v>
   <v>       0.00000000       0.25000000       0.50000000 </v>
   <v>       0.25000000       0.25000000       0.50000000 </v>
   <v>       0.50000000       0.25000000       0.50000000 </v>
   <v>      -0.25000000       0.25000000       0.50000000 </v>
   <v>       0.00000000       0.50000000       0.50000000 </v>
   <v>       0.25000000       0.50000000       0.50000000 </v>
   <v>       0.50000000       0.50000000       0.50000000 </v>
  </varray>
  <varray name="weights" >
   <v>       0.01562500 </v>
   <v>       0.03125000 </v>
   <v>       0.01562500 </v>
   <v>       0.03125000 </v>
   <v>       0.03125000 </v>
   <v>       0.03125000 </v>
   <v>       0.03125000 </v>
   <v>       0.01562500 </v>
   <v>       0.03125000 </v>
   <v>       0.01562500 </v>
   <v>       0.03125000 </v>
   <v>       0.03125000 </v>
   <v>       0.03125000 </v>
   <v>       0.03125000 </v>
   <v>       0.03125000 </v>
   <v>       0.03125000 </v>
   <v>       0.03125000 </v>
   <v>       0.03125000 </v>
   <v>       0.03125000 </v>
   <v>       0.03125000 </v>
   <v>       0.03125000 </v>
   <v>       0.03125000 </v>
   <v>       0.03125000 </v>
   <v>       0.03125000 </v>
   <v>       0.03125000 </v>
   <v>       0.03125000 </v>
   <v>       0.01562500 </v>
   <v>       0.03125000 </v>
   <v>       0.01562500 </v>
   <v>       0.03125000 </v>
   <v>       0.03125000 </v>
   <v>       0.03125000 </v>
   <v>       0.03125000 </v>
   <v>       0.01562500 </v>
   <v>       0.03125000 </v>
   <v>       0.01562500 </v>
  </varray>
  <varray name="tetrahedronlist"  type="int" >
   <v type="int" >        2        1        4        5       16 </v>
   <v type="int" >        2        1        2        5       16 </v>
   <v type="int" >        2        1        2       12       16 </v>
   <v type="int" >        2        1        4       15       16 </v>
   <v type="int" >        2        1       11       15       16 </v>
   <v type="int" >        2        1       11       12       16 </v>
   <v type="int" >        2        2        5        6       17 </v>
   <v type="int" >        2        2        3        6       17 </v>
   <v type="int" >        2        2        3       13       17 </v>
   <v type="int" >        2        2        5       16       17 </v>
   <v type="int" >        2        2       12       16       17 </v>
   <v type="int" >        2        2       12       13       17 </v>
   <v type="int" >        2        3        6        7       18 </v>
   <v type="int" >        2        2        3        7       18 </v>
   <v type="int" >        2        2        3       14       18 </v>
   <v type="int" >        2        3        6       17       18 </v>
   <v type="int" >        2        3       13       17       18 </v>
   <v type="int" >        2        3       13       14       18 </v>
   <v type="int" >        2        2        4        7       15 </v>
   <v type="int" >        2        1        2        4       15 </v>
   <v type="int" >        2        1        2       11       15 </v>
   <v type="int" >        2        2        7       15       18 </v>
   <v type="int" >        2        2       14       15       18 </v>
   <v type="int" >        2        2       11       14       15 </v>
   <v type="int" >        2        4        8        9       20 </v>
   <v type="int" >        2        4        5        9       20 </v>
   <v type="int" >        2        4        5       16       20 </v>
   <v type="int" >        2        4        8       19       20 </v>
   <v type="int" >        2        4       15       19       20 </v>
   <v type="int" >        2        4       15       16       20 </v>
   <v type="int" >        2        5        9       10       21 </v>
   <v type="int" >        2        5        6       10       21 </v>
   <v type="int" >        2        5        6       17       21 </v>
   <v type="int" >        2        5        9       20       21 </v>
   <v type="int" >        2        5       16       20       21 </v>
   <v type="int" >        2        5       16       17       21 </v>
   <v type="int" >        2        6        9       10       22 </v>
   <v type="int" >        2        6        7        9       22 </v>
   <v type="int" >        2        6        7       18       22 </v>
   <v type="int" >        2        6       10       21       22 </v>
   <v type="int" >        2        6       17       21       22 </v>
   <v type="int" >        2        6       17       18       22 </v>
   <v type="int" >        2        7        8        9       19 </v>
   <v type="int" >        2        4        7        8       19 </v>
   <v type="int" >        2        4        7       15       19 </v>
   <v type="int" >        2        7        9       19       22 </v>
   <v type="int" >        2        7       18       19       22 </v>
   <v type="int" >        2        7       15       18       19 </v>
   <v type="int" >        2        4        7        8       24 </v>
   <v type="int" >        2        7        8        9       24 </v>
   <v type="int" >        2        8        9       20       24 </v>
   <v type="int" >        2        4        8       23       24 </v>
   <v type="int" >        2        8       19       23       24 </v>
   <v type="int" >        2        8       19       20       24 </v>
   <v type="int" >        2        6        7        9       25 </v>
   <v type="int" >        2        6        9       10       25 </v>
   <v type="int" >        2        9       10       21       25 </v>
   <v type="int" >        2        7        9       24       25 </v>
   <v type="int" >        2        9       20       24       25 </v>
   <v type="int" >        2        9       20       21       25 </v>
   <v type="int" >        2        5        6       10       26 </v>
   <v type="int" >        2        5        9       10       26 </v>
   <v type="int" >        2        9       10       22       26 </v>
   <v type="int" >        2        6       10       25       26 </v>
   <v type="int" >        2       10       21       25       26 </v>
   <v type="int" >        2       10       21       22       26 </v>
   <v type="int" >        2        4        5        9       23 </v>
   <v type="int" >        2        4        8        9       23 </v>
   <v type="int" >        2        8        9       19       23 </v>
   <v type="int" >        2        5        9       23       26 </v>
   <v type="int" >        2        9       22       23       26 </v>
   <v type="int" >        2        9       19       22       23 </v>
   <v type="int" >        2        1        2        4       12 </v>
   <v type="int" >        2        2        4        7       12 </v>
   <v type="int" >        2        4        7       12       24 </v>
   <v type="int" >        2        1        4       11       12 </v>
   <v type="int" >        2        4       11       12       23 </v>
   <v type="int" >        2        4       12       23       24 </v>
   <v type="int" >        2        2        3        7       13 </v>
   <v type="int" >        2        3        6        7       13 </v>
   <v type="int" >        2        6        7       13       25 </v>
   <v type="int" >        2        2        7       12       13 </v>
   <v type="int" >        2        7       12       13       24 </v>
   <v type="int" >        2        7       13       24       25 </v>
   <v type="int" >        2        2        3        6       14 </v>
   <v type="int" >        2        2        5        6       14 </v>
   <v type="int" >        2        5        6       14       26 </v>
   <v type="int" >        2        3        6       13       14 </v>
   <v type="int" >        2        6       13       14       25 </v>
   <v type="int" >        2        6       14       25       26 </v>
   <v type="int" >        2        1        2        5       11 </v>
   <v type="int" >        2        1        4        5       11 </v>
   <v type="int" >        2        4        5       11       23 </v>
   <v type="int" >        2        2        5       11       14 </v>
   <v type="int" >        2        5       11       14       26 </v>
   <v type="int" >        2        5       11       23       26 </v>
   <v type="int" >        2       11       15       16       31 </v>
   <v type="int" >        2       11       12       16       31 </v>
   <v type="int" >        2       11       12       28       31 </v>
   <v type="int" >        2       11       15       30       31 </v>
   <v type="int" >        2       11       27       30       31 </v>
   <v type="int" >        2       11       27       28       31 </v>
   <v type="int" >        2       12       16       17       32 </v>
   <v type="int" >        2       12       13       17       32 </v>
   <v type="int" >        2       12       13       29       32 </v>
   <v type="int" >        2       12       16       31       32 </v>
   <v type="int" >        2       12       28       31       32 </v>
   <v type="int" >        2       12       28       29       32 </v>
   <v type="int" >        2       13       17       18       33 </v>
   <v type="int" >        2       13       14       18       33 </v>
   <v type="int" >        2       13       14       28       33 </v>
   <v type="int" >        2       13       17       32       33 </v>
   <v type="int" >        2       13       29       32       33 </v>
   <v type="int" >        2       13       28       29       33 </v>
   <v type="int" >        2       14       15       18       30 </v>
   <v type="int" >        2       11       14       15       30 </v>
   <v type="int" >        2       11       14       27       30 </v>
   <v type="int" >        2       14       18       30       33 </v>
   <v type="int" >        2       14       28       30       33 </v>
   <v type="int" >        2       14       27       28       30 </v>
   <v type="int" >        2       15       19       20       35 </v>
   <v type="int" >        2       15       16       20       35 </v>
   <v type="int" >        2       15       16       31       35 </v>
   <v type="int" >        2       15       19       34       35 </v>
   <v type="int" >        2       15       30       34       35 </v>
   <v type="int" >        2       15       30       31       35 </v>
   <v type="int" >        2       16       20       21       36 </v>
   <v type="int" >        2       16       17       21       36 </v>
   <v type="int" >        2       16       17       32       36 </v>
   <v type="int" >        2       16       20       35       36 </v>
   <v type="int" >        2       16       31       35       36 </v>
   <v type="int" >        2       16       31       32       36 </v>
   <v type="int" >        2       17       21       22       35 </v>
   <v type="int" >        2       17       18       22       35 </v>
   <v type="int" >        2       17       18       33       35 </v>
   <v type="int" >        2       17       21       35       36 </v>
   <v type="int" >        2       17       32       35       36 </v>
   <v type="int" >        2       17       32       33       35 </v>
   <v type="int" >        2       18       19       22       34 </v>
   <v type="int" >        2       15       18       19       34 </v>
   <v type="int" >        2       15       18       30       34 </v>
   <v type="int" >        2       18       22       34       35 </v>
   <v type="int" >        2       18       33       34       35 </v>
   <v type="int" >        2       18       30       33       34 </v>
   <v type="int" >        2       19       23       24       33 </v>
   <v type="int" >        2       19       20       24       33 </v>
   <v type="int" >        2       19       20       33       35 </v>
   <v type="int" >        2       19       23       30       33 </v>
   <v type="int" >        2       19       30       33       34 </v>
   <v type="int" >        2       19       33       34       35 </v>
   <v type="int" >        2       20       24       25       32 </v>
   <v type="int" >        2       20       21       25       32 </v>
   <v type="int" >        2       20       21       32       36 </v>
   <v type="int" >        2       20       24       32       33 </v>
   <v type="int" >        2       20       32       33       35 </v>
   <v type="int" >        2       20       32       35       36 </v>
   <v type="int" >        2       21       25       26       31 </v>
   <v type="int" >        2       21       22       26       31 </v>
   <v type="int" >        2       21       22       31       35 </v>
   <v type="int" >        2       21       25       31       32 </v>
   <v type="int" >        2       21       31       32       36 </v>
   <v type="int" >        2       21       31       35       36 </v>
   <v type="int" >        2       22       23       26       30 </v>
   <v type="int" >        2       19       22       23       30 </v>
   <v type="int" >        2       19       22       30       34 </v>
   <v type="int" >        2       22       26       30       31 </v>
   <v type="int" >        2       22       30       31       35 </v>
   <v type="int" >        2       22       30       34       35 </v>
   <v type="int" >        2       11       12       23       28 </v>
   <v type="int" >        2       12       23       24       28 </v>
   <v type="int" >        2       23       24       28       33 </v>
   <v type="int" >        2       11       23       27       28 </v>
   <v type="int" >        2       23       27       28       30 </v>
   <v type="int" >        2       23       28       30       33 </v>
   <v type="int" >        2       12       13       24       29 </v>
   <v type="int" >        2       13       24       25       29 </v>
   <v type="int" >        2       24       25       29       32 </v>
   <v type="int" >        2       12       24       28       29 </v>
   <v type="int" >        2       24       28       29       33 </v>
   <v type="int" >        2       24       29       32       33 </v>
   <v type="int" >        2       13       14       25       28 </v>
   <v type="int" >        2       14       25       26       28 </v>
   <v type="int" >        2       25       26       28       31 </v>
   <v type="int" >        2       13       25       28       29 </v>
   <v type="int" >        2       25       28       29       32 </v>
   <v type="int" >        2       25       28       31       32 </v>
   <v type="int" >        2       11       14       26       27 </v>
   <v type="int" >        2       11       23       26       27 </v>
   <v type="int" >        2       23       26       27       30 </v>
   <v type="int" >        2       14       26       27       28 </v>
   <v type="int" >        2       26       27       28       31 </v>
   <v type="int" >        2       26       27       30       31 </v>
  </varray>
  <i name="volumeweight">      0.00260417 </i>
 </kpoints>
 <parameters>
  <separator name="general" >
   <i type="string" name="SYSTEM">Li(NbTa)O_3</i>
   <i type="logical" name="LCOMPAT"> F  </i>
  </separator>
  <separator name="electronic" >
   <i type="string" name="PREC">accura</i>
   <i name="ENMAX">    475.00000000</i>
   <i name="ENAUG">    605.39200000</i>
   <i name="EDIFF">      0.00000100</i>
   <i type="int" name="IALGO">    68</i>
   <i type="int" name="IWAVPR">    11</i>
   <i type="int" name="NBANDS">   288</i>
   <i name="NELECT">    464.00000000</i>
   <i type="int" name="TURBO">     0</i>
   <i type="int" name="IRESTART">     0</i>
   <i type="int" name="NREBOOT">     0</i>
   <i type="int" name="NMIN">     0</i>
   <i name="EREF">      0.00000000</i>
   <separator name="electronic smearing" >
    <i type="int" name="ISMEAR">    -5</i>
    <i name="SIGMA">      0.05000000</i>
    <i name="KSPACING">      0.50000000</i>
    <i type="logical" name="KGAMMA"> T  </i>
   </separator>
   <separator name="electronic projectors" >
    <i type="logical" name="LREAL"> T  </i>
    <v name="ROPT">     -0.00025000     -0.00025000     -0.00025000     -0.00025000</v>
    <i type="int" name="LMAXPAW">  -100</i>
    <i type="int" name="LMAXMIX">     2</i>
    <i type="logical" name="NLSPLINE"> F  </i>
   </separator>
   <separator name="electronic startup" >
    <i type="int" name="ISTART">     0</i>
    <i type="int" name="ICHARG">     2</i>
    <i type="int" name="INIWAV">     1</i>
   </separator>
   <separator name="electronic spin" >
    <i type="int" name="ISPIN">     1</i>
    <i type="logical" name="LNONCOLLINEAR"> F  </i>
    <v name="MAGMOM">      1.00000000      1.00000000      1.00000000      1.00000000      1.00000000      1.00000000      1.00000000      1.00000000      1.00000000      1.00000000      1.00000000      1.00000000      1.00000000      1.00000000      1.00000000      1.00000000      1.00000000      1.00000000      1.00000000      1.00000000
      1.00000000      1.00000000      1.00000000      1.00000000      1.00000000      1.00000000      1.00000000      1.00000000      1.00000000      1.00000000      1.00000000      1.00000000      1.00000000      1.00000000      1.00000000      1.00000000      1.00000000      1.00000000      1.00000000      1.00000000
      1.00000000      1.00000000      1.00000000      1.00000000      1.00000000      1.00000000      1.00000000      1.00000000      1.00000000      1.00000000      1.00000000      1.00000000      1.00000000      1.00000000      1.00000000      1.00000000      1.00000000      1.00000000      1.00000000      1.00000000
      1.00000000      1.00000000      1.00000000      1.00000000      1.00000000      1.00000000      1.00000000      1.00000000      1.00000000      1.00000000      1.00000000      1.00000000      1.00000000      1.00000000      1.00000000      1.00000000      1.00000000      1.00000000      1.00000000      1.00000000
</v>
    <i name="NUPDOWN">     -1.00000000</i>
    <i type="logical" name="LSORBIT"> F  </i>
    <v name="SAXIS">      0.00000000      0.00000000      1.00000000</v>
    <i type="logical" name="LSPIRAL"> F  </i>
    <v name="QSPIRAL">      0.00000000      0.00000000      0.00000000</v>
    <i type="logical" name="LZEROZ"> F  </i>
   </separator>
   <separator name="electronic exchange-correlation" >
    <i type="logical" name="LASPH"> F  </i>
    <i type="logical" name="LMETAGGA"> F  </i>
   </separator>
   <separator name="electronic convergence" >
    <i type="int" name="NELM">  1000</i>
    <i type="int" name="NELMDL">    -5</i>
    <i type="int" name="NELMIN">     4</i>
    <i name="ENINI">    475.00000000</i>
    <separator name="electronic convergence detail" >
     <i type="logical" name="LDIAG"> T  </i>
     <i type="logical" name="LSUBROT"> F  </i>
     <i name="WEIMIN">      0.00100000</i>
     <i name="EBREAK">      0.00000000</i>
     <i name="DEPER">      0.30000000</i>
     <i type="int" name="NRMM">     4</i>
     <i name="TIME">      0.40000000</i>
    </separator>
   </separator>
   <separator name="electronic mixer" >
    <i name="AMIX">      0.40000000</i>
    <i name="BMIX">      1.00000000</i>
    <i name="AMIN">      0.10000000</i>
    <i name="AMIX_MAG">      1.60000000</i>
    <i name="BMIX_MAG">      1.00000000</i>
    <separator name="electronic mixer details" >
     <i type="int" name="IMIX">     4</i>
     <i type="logical" name="MIXFIRST"> F  </i>
     <i type="int" name="MAXMIX">   -45</i>
     <i name="WC">    100.00000000</i>
     <i type="int" name="INIMIX">     1</i>
     <i type="int" name="MIXPRE">     1</i>
     <i type="int" name="MREMOVE">     5</i>
    </separator>
   </separator>
   <separator name="electronic dipolcorrection" >
    <i type="logical" name="LDIPOL"> F  </i>
    <i type="logical" name="LMONO"> F  </i>
    <i type="int" name="IDIPOL">     0</i>
    <i name="EPSILON">      1.00000000</i>
    <v name="DIPOL">   -100.00000000   -100.00000000   -100.00000000</v>
    <i name="EFIELD">      0.00000000</i>
   </separator>
  </separator>
  <separator name="grids" >
   <i type="int" name="NGX">    80</i>
   <i type="int" name="NGY">    80</i>
   <i type="int" name="NGZ">    80</i>
   <i type="int" name="NGXF">   160</i>
   <i type="int" name="NGYF">   160</i>
   <i type="int" name="NGZF">   160</i>
   <i type="logical" name="ADDGRID"> F  </i>
  </separator>
  <separator name="ionic" >
   <i type="int" name="NSW">   200</i>
   <i type="int" name="IBRION">     1</i>
   <i type="int" name="MDALGO">     0</i>
   <i type="int" name="ISIF">     4</i>
   <i name="PSTRESS">      0.00000000</i>
   <i name="EDIFFG">     -0.00500000</i>
   <i type="int" name="NFREE">     0</i>
   <i name="POTIM">      0.15000000</i>
   <i name="SMASS">     -3.00000000</i>
   <i name="SCALEE">      1.00000000</i>
  </separator>
  <separator name="ionic md" >
   <i name="TEBEG">      0.00010000</i>
   <i name="TEEND">      0.00010000</i>
   <i type="int" name="NBLOCK">     1</i>
   <i type="int" name="KBLOCK">   200</i>
   <i type="int" name="NPACO">   256</i>
   <i name="APACO">     16.00000000</i>
  </separator>
  <separator name="symmetry" >
   <i type="int" name="ISYM">     2</i>
   <i name="SYMPREC">      0.00001000</i>
  </separator>
  <separator name="dos" >
   <i type="int" name="LORBIT">     0</i>
   <v name="RWIGS">     -1.00000000     -1.00000000     -1.00000000     -1.00000000</v>
   <i type="int" name="NEDOS">   301</i>
   <i name="EMIN">     10.00000000</i>
   <i name="EMAX">    -10.00000000</i>
   <i name="EFERMI">      0.00000000</i>
  </separator>
  <separator name="writing" >
   <i type="int" name="NWRITE">     0</i>
   <i type="logical" name="LWAVE"> F  </i>
   <i type="logical" name="LDOWNSAMPLE"> F  </i>
   <i type="logical" name="LCHARG"> F  </i>
   <i type="logical" name="LPARD"> F  </i>
   <i type="logical" name="LVTOT"> F  </i>
   <i type="logical" name="LVHAR"> F  </i>
   <i type="logical" name="LELF"> F  </i>
   <i type="logical" name="LOPTICS"> F  </i>
   <v name="STM">      0.00000000      0.00000000      0.00000000      0.00000000      0.00000000      0.00000000      0.00000000</v>
  </separator>
  <separator name="performance" >
   <i type="int" name="NPAR">    96</i>
   <i type="int" name="NSIM">     4</i>
   <i type="int" name="NBLK">    -1</i>
   <i type="logical" name="LPLANE"> T  </i>
   <i type="logical" name="LSCALAPACK"> F  </i>
   <i type="logical" name="LSCAAWARE"> F  </i>
   <i type="logical" name="LSCALU"> F  </i>
   <i type="logical" name="LASYNC"> F  </i>
   <i type="logical" name="LORBITALREAL"> F  </i>
  </separator>
  <separator name="miscellaneous" >
   <i type="int" name="IDIOT">     3</i>
   <i type="int" name="ISPECIAL">     0</i>
   <i type="logical" name="LMUSIC"> F  </i>
   <v name="POMASS">      7.01000000     92.91000000     16.00000000    180.94800000</v>
   <v name="DARWINR">      0.00000000      0.00000000      0.00000000      0.00000000</v>
   <v name="DARWINV">      1.00000000      1.00000000      1.00000000      1.00000000</v>
   <i type="logical" name="LCORR"> T  </i>
  </separator>
  <i type="logical" name="GGA_COMPAT"> T  </i>
  <i type="logical" name="LBERRY"> F  </i>
  <i type="int" name="ICORELEVEL">     0</i>
  <i type="logical" name="LDAU"> F  </i>
  <i type="int" name="I_CONSTRAINED_M">     0</i>
  <separator name="electronic exchange-correlation" >
   <i type="string" name="GGA">PS</i>
   <i type="int" name="VOSKOWN">     0</i>
   <i type="logical" name="LHFCALC"> F  </i>
   <i type="string" name="PRECFOCK"></i>
   <i type="logical" name="LSYMGRAD"> F  </i>
   <i type="logical" name="LHFONE"> F  </i>
   <i type="logical" name="LRHFCALC"> F  </i>
   <i type="logical" name="LTHOMAS"> F  </i>
   <i type="logical" name="LMODELHF"> F  </i>
   <i name="ENCUT4O">     -1.00000000</i>
   <i type="int" name="EXXOEP">     0</i>
   <i type="int" name="FOURORBIT">     0</i>
   <i name="AEXX">      0.00000000</i>
   <i name="HFALPHA">      0.00000000</i>
   <i name="MCALPHA">      0.00000000</i>
   <i name="ALDAX">      1.00000000</i>
   <i name="AGGAX">      1.00000000</i>
   <i name="ALDAC">      1.00000000</i>
   <i name="AGGAC">      1.00000000</i>
   <i type="int" name="NKREDX">     1</i>
   <i type="int" name="NKREDY">     1</i>
   <i type="int" name="NKREDZ">     1</i>
   <i type="logical" name="SHIFTRED"> F  </i>
   <i type="logical" name="ODDONLY"> F  </i>
   <i type="logical" name="EVENONLY"> F  </i>
   <i type="int" name="LMAXFOCK">     0</i>
   <i type="int" name="NMAXFOCKAE">     0</i>
   <i type="logical" name="LFOCKAEDFT"> F  </i>
   <i name="HFSCREEN">      0.00000000</i>
   <i name="HFSCREENC">      0.00000000</i>
   <i type="int" name="NBANDSGWLOW">     0</i>
  </separator>
  <separator name="vdW DFT" >
   <i type="logical" name="LUSE_VDW"> F  </i>
   <i name="Zab_VDW">     -0.84910000</i>
   <i name="PARAM1">      0.12340000</i>
   <i name="PARAM2">      1.00000000</i>
   <i name="PARAM3">      0.00000000</i>
  </separator>
  <separator name="model GW" >
   <i type="int" name="MODEL_GW">     0</i>
   <i name="MODEL_EPS0">      6.32609109</i>
   <i name="MODEL_ALPHA">      1.00000000</i>
  </separator>
  <separator name="linear response parameters" >
   <i type="logical" name="LEPSILON"> F  </i>
   <i type="logical" name="LRPA"> F  </i>
   <i type="logical" name="LNABLA"> F  </i>
   <i type="logical" name="LVEL"> F  </i>
   <i type="int" name="KINTER">     0</i>
   <i name="CSHIFT">      0.10000000</i>
   <i name="OMEGAMAX">     -1.00000000</i>
   <i name="DEG_THRESHOLD">      0.00200000</i>
   <i name="RTIME">     -0.10000000</i>
   <i name="WPLASMAI">      0.00000000</i>
   <v name="DFIELD">      0.00000000      0.00000000      0.00000000</v>
   <v name="WPLASMA">      0.00000000      0.00000000      0.00000000      0.00000000      0.00000000      0.00000000      0.00000000      0.00000000      0.00000000</v>
  </separator>
  <separator name="orbital magnetization" >
   <i type="logical" name="NUCIND"> F  </i>
   <v name="MAGPOS">      0.00000000      0.00000000      0.00000000</v>
   <i type="logical" name="LNICSALL"> T  </i>
   <i type="logical" name="ORBITALMAG"> F  </i>
   <i type="logical" name="LMAGBLOCH"> F  </i>
   <i type="logical" name="LCHIMAG"> F  </i>
   <i type="logical" name="LGAUGE"> T  </i>
   <i type="int" name="MAGATOM">     0</i>
   <v name="MAGDIPOL">      0.00000000      0.00000000      0.00000000</v>
   <v name="AVECCONST">      0.00000000      0.00000000      0.00000000</v>
  </separator>
  <separator name="response functions" >
   <i type="logical" name="LADDER"> F  </i>
   <i type="logical" name="LRPAFORCE"> F  </i>
   <i type="logical" name="LFXC"> F  </i>
   <i type="logical" name="LHARTREE"> T  </i>
   <i type="int" name="IBSE">     0</i>
   <v type="int" name="KPOINT">    -1     0     0     0</v>
   <i type="logical" name="LTCTE"> F  </i>
   <i type="logical" name="LTETE"> F  </i>
   <i type="logical" name="LTRIPLET"> F  </i>
   <i type="logical" name="LFXCEPS"> F  </i>
   <i type="logical" name="LFXHEG"> F  </i>
   <i type="int" name="NATURALO">     2</i>
   <i type="logical" name="L2ORDER"> F  </i>
   <i type="logical" name="LMP2LT"> F  </i>
   <i type="logical" name="LUSEW"> F  </i>
   <i name="ENCUTGW">     -2.00000000</i>
   <i name="ENCUTGWSOFT">     -2.00000000</i>
   <i name="ENCUTLF">     -1.00000000</i>
   <i type="int" name="LMAXMP2">    -1</i>
   <i name="SCISSOR">      0.00000000</i>
   <i type="int" name="NOMEGA">     0</i>
   <i type="int" name="NOMEGAR">     0</i>
   <i type="int" name="NBANDSGW">    -1</i>
   <i type="int" name="NBANDSO">    -1</i>
   <i type="int" name="NBANDSV">    -1</i>
   <i type="int" name="NELM">  1000</i>
   <i type="int" name="NELMHF">     1</i>
   <i type="int" name="DIM">     3</i>
   <i type="int" name="ANTIRES">     0</i>
   <i name="OMEGAMAX">    -30.00000000</i>
   <i name="OMEGAMIN">    -30.00000000</i>
   <i name="OMEGATL">   -200.00000000</i>
   <i type="int" name="OMEGAGRID">   140</i>
   <i name="CSHIFT">     -0.10000000</i>
   <i type="logical" name="SELFENERGY"> F  </i>
   <i type="logical" name="LSPECTRAL"> F  </i>
   <i type="logical" name="LSPECTRALGW"> F  </i>
   <i type="logical" name="LSINGLES"> F  </i>
   <i type="logical" name="LFERMIGW"> F  </i>
   <i type="logical" name="ODDONLYGW"> F  </i>
   <i type="logical" name="EVENONLYGW"> F  </i>
   <i type="int" name="NKREDLFX">     1</i>
   <i type="int" name="NKREDLFY">     1</i>
   <i type="int" name="NKREDLFZ">     1</i>
   <i type="int" name="MAXMEM">  2800</i>
   <i type="int" name="TELESCOPE">     0</i>
   <i type="int" name="TAUPAR">     1</i>
   <i type="int" name="OMEGAPAR">    -1</i>
   <i name="LAMBDA">      1.00000000</i>
  </separator>
  <separator name="External order field" >
   <i name="OFIELD_KAPPA">      0.00000000</i>
   <v name="OFIELD_K">      0.00000000      0.00000000      0.00000000</v>
   <i name="OFIELD_Q6_NEAR">      0.00000000</i>
   <i name="OFIELD_Q6_FAR">      0.00000000</i>
   <i name="OFIELD_A">      0.00000000</i>
  </separator>
 </parameters>
 <atominfo>
  <atoms>      80 </atoms>
  <types>       4 </types>
  <array name="atoms" >
   <dimension dim="1">ion</dimension>
   <field type="string">element</field>
   <field type="int">atomtype</field>
   <set>
    <rc><c>Li</c><c>   1</c></rc>
    <rc><c>Li</c><c>   1</c></rc>
    <rc><c>Li</c><c>   1</c></rc>
    <rc><c>Li</c><c>   1</c></rc>
    <rc><c>Li</c><c>   1</c></rc>
    <rc><c>Li</c><c>   1</c></rc>
    <rc><c>Li</c><c>   1</c></rc>
    <rc><c>Li</c><c>   1</c></rc>
    <rc><c>Li</c><c>   1</c></rc>
    <rc><c>Li</c><c>   1</c></rc>
    <rc><c>Li</c><c>   1</c></rc>
    <rc><c>Li</c><c>   1</c></rc>
    <rc><c>Li</c><c>   1</c></rc>
    <rc><c>Li</c><c>   1</c></rc>
    <rc><c>Li</c><c>   1</c></rc>
    <rc><c>Li</c><c>   1</c></rc>
    <rc><c>Nb</c><c>   2</c></rc>
    <rc><c>Nb</c><c>   2</c></rc>
    <rc><c>Nb</c><c>   2</c></rc>
    <rc><c>Nb</c><c>   2</c></rc>
    <rc><c>Nb</c><c>   2</c></rc>
    <rc><c>Nb</c><c>   2</c></rc>
    <rc><c>Nb</c><c>   2</c></rc>
    <rc><c>Nb</c><c>   2</c></rc>
    <rc><c>Nb</c><c>   2</c></rc>
    <rc><c>Nb</c><c>   2</c></rc>
    <rc><c>O </c><c>   3</c></rc>
    <rc><c>O </c><c>   3</c></rc>
    <rc><c>O </c><c>   3</c></rc>
    <rc><c>O </c><c>   3</c></rc>
    <rc><c>O </c><c>   3</c></rc>
    <rc><c>O </c><c>   3</c></rc>
    <rc><c>O </c><c>   3</c></rc>
    <rc><c>O </c><c>   3</c></rc>
    <rc><c>O </c><c>   3</c></rc>
    <rc><c>O </c><c>   3</c></rc>
    <rc><c>O </c><c>   3</c></rc>
    <rc><c>O </c><c>   3</c></rc>
    <rc><c>O </c><c>   3</c></rc>
    <rc><c>O </c><c>   3</c></rc>
    <rc><c>O </c><c>   3</c></rc>
    <rc><c>O </c><c>   3</c></rc>
    <rc><c>O </c><c>   3</c></rc>
    <rc><c>O </c><c>   3</c></rc>
    <rc><c>O </c><c>   3</c></rc>
    <rc><c>O </c><c>   3</c></rc>
    <rc><c>O </c><c>   3</c></rc>
    <rc><c>O </c><c>   3</c></rc>
    <rc><c>O </c><c>   3</c></rc>
    <rc><c>O </c><c>   3</c></rc>
    <rc><c>O </c><c>   3</c></rc>
    <rc><c>O </c><c>   3</c></rc>
    <rc><c>O </c><c>   3</c></rc>
    <rc><c>O </c><c>   3</c></rc>
    <rc><c>O </c><c>   3</c></rc>
    <rc><c>O </c><c>   3</c></rc>
    <rc><c>O </c><c>   3</c></rc>
    <rc><c>O </c><c>   3</c></rc>
    <rc><c>O </c><c>   3</c></rc>
    <rc><c>O </c><c>   3</c></rc>
    <rc><c>O </c><c>   3</c></rc>
    <rc><c>O </c><c>   3</c></rc>
    <rc><c>O </c><c>   3</c></rc>
    <rc><c>O </c><c>   3</c></rc>
    <rc><c>O </c><c>   3</c></rc>
    <rc><c>O </c><c>   3</c></rc>
    <rc><c>O </c><c>   3</c></rc>
    <rc><c>O </c><c>   3</c></rc>
    <rc><c>O </c><c>   3</c></rc>
    <rc><c>O </c><c>   3</c></rc>
    <rc><c>O </c><c>   3</c></rc>
    <rc><c>O </c><c>   3</c></rc>
    <rc><c>O </c><c>   3</c></rc>
    <rc><c>O </c><c>   3</c></rc>
    <rc><c>Ta</c><c>   4</c></rc>
    <rc><c>Ta</c><c>   4</c></rc>
    <rc><c>Ta</c><c>   4</c></rc>
    <rc><c>Ta</c><c>   4</c></rc>
    <rc><c>Ta</c><c>   4</c></rc>
    <rc><c>Ta</c><c>   4</c></rc>
   </set>
  </array>
  <array name="atomtypes" >
   <dimension dim="1">type</dimension>
   <field type="int">atomspertype</field>
   <field type="string">element</field>
   <field>mass</field>
   <field>valence</field>
   <field type="string">pseudopotential</field>
   <set>
    <rc><c>  16</c><c>Li</c><c>      7.01000000</c><c>      1.00000000</c><c>  PAW_PBE Li 17Jan2003                  </c></rc>
    <rc><c>  10</c><c>Nb</c><c>     92.91000000</c><c>     13.00000000</c><c>  PAW_PBE Nb_sv 25May2007               </c></rc>
    <rc><c>  48</c><c>O </c><c>     16.00000000</c><c>      6.00000000</c><c>  PAW_PBE O 08Apr2002                   </c></rc>
    <rc><c>   6</c><c>Ta</c><c>    180.94800000</c><c>      5.00000000</c><c>  PAW_PBE Ta 17Jan2003                  </c></rc>
   </set>
  </array>
 </atominfo>
 <structure name="initialpos" >
  <crystal>
   <varray name="basis" >
    <v>       5.14357707      -2.96805212       9.20935144 </v>
    <v>       0.00246955       5.93768908       9.20848994 </v>
    <v>      -5.14097364      -2.96940062       9.20746997 </v>
   </varray>
   <i name="volume">    843.47881204 </i>
   <varray name="rec_basis" >
    <v>       0.09723397      -0.05615238       0.03618131 </v>
    <v>      -0.00002134       0.11227830       0.03619773 </v>
    <v>      -0.09723249      -0.05612688       0.03621702 </v>
   </varray>
  </crystal>
  <varray name="positions" >
   <v>       0.13834752       0.13936271       0.13984335 </v>
   <v>       0.39146324       0.38999630       0.39085144 </v>
   <v>       0.14028321       0.14032414       0.64092124 </v>
   <v>       0.39173469       0.39088444       0.89059988 </v>
   <v>       0.14005761       0.63914415       0.13990376 </v>
   <v>       0.38998511       0.89022976       0.39046082 </v>
   <v>       0.14027342       0.63856692       0.63942290 </v>
   <v>       0.39066873       0.89122478       0.89017412 </v>
   <v>       0.63968950       0.14081636       0.13851063 </v>
   <v>       0.89081879       0.39199278       0.39127564 </v>
   <v>       0.64044608       0.13979598       0.63895884 </v>
   <v>       0.89104424       0.39188824       0.88993991 </v>
   <v>       0.63987068       0.64050964       0.14005521 </v>
   <v>       0.88952244       0.89019616       0.39154151 </v>
   <v>       0.64095434       0.64008558       0.64144699 </v>
   <v>       0.89103108       0.89076076       0.89134632 </v>
   <v>       0.99959237       0.00150112       0.99675172 </v>
   <v>       0.99938324       0.00003493       0.49763958 </v>
   <v>       0.25168038       0.24891337       0.74959517 </v>
   <v>       0.99749990       0.49794372       0.00086033 </v>
   <v>       0.00052440       0.49715140       0.50088067 </v>
   <v>       0.49988249       0.99738472       0.00090131 </v>
   <v>       0.49954620       0.50003968       0.99785757 </v>
   <v>       0.75097315       0.74942469       0.24984287 </v>
   <v>       0.49985523       0.50129758       0.49655071 </v>
   <v>       0.74940214       0.75095878       0.74802348 </v>
   <v>       0.05623360       0.18120304       0.36059596 </v>
   <v>       0.36055215       0.05618073       0.18135900 </v>
   <v>       0.18067803       0.36043515       0.05635112 </v>
   <v>       0.43164615       0.30579781       0.11007695 </v>
   <v>       0.10933811       0.43208088       0.30572184 </v>
   <v>       0.30616879       0.11038237       0.43144631 </v>
   <v>       0.05540035       0.18155956       0.86034038 </v>
   <v>       0.35943918       0.05639020       0.68203455 </v>
   <v>       0.18159346       0.36067916       0.55556672 </v>
   <v>       0.43176800       0.30520898       0.61104129 </v>
   <v>       0.11066152       0.43074915       0.80539644 </v>
   <v>       0.30515946       0.11079423       0.93190663 </v>
   <v>       0.05604537       0.68076856       0.36081137 </v>
   <v>       0.36061507       0.55618152       0.18081868 </v>
   <v>       0.18040413       0.86090372       0.05629587 </v>
   <v>       0.43096027       0.80670950       0.10983535 </v>
   <v>       0.11018018       0.93120277       0.30647725 </v>
   <v>       0.30631393       0.60963452       0.43142758 </v>
   <v>       0.05642617       0.67983109       0.86072292 </v>
   <v>       0.36082901       0.55621291       0.68039936 </v>
   <v>       0.18050111       0.86073339       0.55625759 </v>
   <v>       0.43105925       0.80638098       0.60992686 </v>
   <v>       0.10974163       0.93076687       0.80662904 </v>
   <v>       0.30592914       0.60973059       0.93157562 </v>
   <v>       0.55668960       0.18089021       0.36049958 </v>
   <v>       0.86099568       0.05588109       0.18065345 </v>
   <v>       0.68094161       0.36072792       0.05606070 </v>
   <v>       0.93094987       0.30643726       0.10970186 </v>
   <v>       0.61015919       0.43137998       0.30635721 </v>
   <v>       0.80662739       0.10979363       0.43135599 </v>
   <v>       0.55625493       0.18016866       0.86082204 </v>
   <v>       0.86060460       0.05601788       0.68054061 </v>
   <v>       0.68056339       0.36084158       0.55626059 </v>
   <v>       0.93128773       0.30623948       0.60979445 </v>
   <v>       0.61008613       0.43101265       0.80636497 </v>
   <v>       0.80623116       0.10929440       0.93147945 </v>
   <v>       0.55554077       0.68183433       0.36007734 </v>
   <v>       0.86007458       0.55634829       0.18046819 </v>
   <v>       0.68107200       0.86046774       0.05575260 </v>
   <v>       0.93136114       0.80492582       0.11095065 </v>
   <v>       0.61067752       0.93165297       0.30547765 </v>
   <v>       0.80503784       0.61074302       0.43111591 </v>
   <v>       0.55556968       0.68082022       0.86090541 </v>
   <v>       0.86059508       0.55581627       0.68050717 </v>
   <v>       0.68097931       0.85972506       0.55655493 </v>
   <v>       0.93138973       0.80539064       0.61084254 </v>
   <v>       0.61024363       0.93134011       0.80571432 </v>
   <v>       0.80584636       0.61083297       0.93009391 </v>
   <v>       0.24862253       0.24992729       0.24762435 </v>
   <v>       0.24806756       0.74806531       0.24849505 </v>
   <v>       0.24752603       0.74745881       0.74934160 </v>
   <v>       0.74730972       0.24776208       0.24918815 </v>
   <v>       0.49682629       0.99767190       0.50015434 </v>
   <v>       0.74834988       0.24827406       0.74832874 </v>
  </varray>
 </structure>
 <calculation>
  <scstep>
   <time name="dav">   30.69   30.70</time>
   <time name="total">   30.84   30.89</time>
   <energy>
    <i name="alphaZ">   1631.38525256 </i>
    <i name="ewald"> -26746.99462426 </i>
    <i name="hartreedc"> -10662.03717147 </i>
    <i name="XCdc">   1466.19479822 </i>
    <i name="pawpsdc">  30201.20122080 </i>
    <i name="pawaedc"> -29545.67637776 </i>
    <i name="eentropy">      0.00000000 </i>
    <i name="bandstr">     83.96143497 </i>
    <i name="atom">  37080.84622879 </i>
    <i name="e_fr_energy">   3508.88076185 </i>
    <i name="e_wo_entrp">   3508.88076185 </i>
    <i name="e_0_energy">   3508.88076185 </i>
   </energy>
  </scstep>
  <scstep>
   <time name="dav">   48.94   48.99</time>
   <time name="total">   48.95   49.00</time>
   <energy>
    <i name="e_fr_energy">   -601.37140634 </i>
    <i name="e_wo_entrp">   -601.37140634 </i>
    <i name="e_0_energy">   -601.37140634 </i>
   </energy>
  </scstep>
  <scstep>
   <time name="dav">   55.95   56.01</time>
   <time name="total">   55.96   56.02</time>
   <energy>
    <i name="e_fr_energy">   -805.12876414 </i>
    <i name="e_wo_entrp">   -805.12876414 </i>
    <i name="e_0_energy">   -805.12876414 </i>
   </energy>
  </scstep>
  <scstep>
   <time name="dav">   53.61   53.67</time>
   <time name="total">   53.62   53.68</time>
   <energy>
    <i name="e_fr_energy">   -811.06247521 </i>
    <i name="e_wo_entrp">   -811.06247521 </i>
    <i name="e_0_energy">   -811.06247521 </i>
   </energy>
  </scstep>
  <scstep>
   <time name="dav">   60.60   60.66</time>
   <time name="total">   61.64   61.71</time>
   <energy>
    <i name="e_fr_energy">   -811.17531438 </i>
    <i name="e_wo_entrp">   -811.17531438 </i>
    <i name="e_0_energy">   -811.17531438 </i>
   </energy>
  </scstep>
  <scstep>
   <time name="diag">    4.14    4.14</time>
   <time name="diis">   14.89   14.90</time>
   <time name="orth">    0.75    0.75</time>
   <time name="total">   20.89   20.92</time>
   <energy>
    <i name="e_fr_energy">   -689.96049513 </i>
    <i name="e_wo_entrp">   -689.96049513 </i>
    <i name="e_0_energy">   -689.96049513 </i>
   </energy>
  </scstep>
  <scstep>
   <time name="diag">    4.14    4.14</time>
   <time name="diis">   16.43   16.44</time>
   <time name="orth">    0.76    0.76</time>
   <time name="total">   22.42   22.46</time>
   <energy>
    <i name="e_fr_energy">   -680.57655890 </i>
    <i name="e_wo_entrp">   -680.57655890 </i>
    <i name="e_0_energy">   -680.57655890 </i>
   </energy>
  </scstep>
  <scstep>
   <time name="diag">    4.16    4.16</time>
   <time name="diis">   16.08   16.09</time>
   <time name="orth">    0.76    0.76</time>
   <time name="total">   22.10   22.13</time>
   <energy>
    <i name="e_fr_energy">   -680.41042773 </i>
    <i name="e_wo_entrp">   -680.41042773 </i>
    <i name="e_0_energy">   -680.41042773 </i>
   </energy>
  </scstep>
  <scstep>
   <time name="diag">    4.14    4.14</time>
   <time name="diis">   19.95   19.96</time>
   <time name="orth">    0.76    0.76</time>
   <time name="total">   25.98   26.01</time>
   <energy>
    <i name="e_fr_energy">   -680.33969873 </i>
    <i name="e_wo_entrp">   -680.33969873 </i>
    <i name="e_0_energy">   -680.33969873 </i>
   </energy>
  </scstep>
  <scstep>
   <time name="diag">    4.15    4.15</time>
   <time name="diis">   18.73   18.75</time>
   <time name="orth">    0.76    0.76</time>
   <time name="total">   24.75   24.77</time>
   <energy>
    <i name="e_fr_energy">   -680.34031863 </i>
    <i name="e_wo_entrp">   -680.34031863 </i>
    <i name="e_0_energy">   -680.34031863 </i>
   </energy>
  </scstep>
  <scstep>
   <time name="diag">    4.15    4.15</time>
   <time name="diis">   18.99   19.01</time>
   <time name="orth">    0.77    0.77</time>
   <time name="total">   25.03   25.05</time>
   <energy>
    <i name="e_fr_energy">   -680.35263184 </i>
    <i name="e_wo_entrp">   -680.35263184 </i>
    <i name="e_0_energy">   -680.35263184 </i>
   </energy>
  </scstep>
  <scstep>
   <time name="diag">    4.14    4.15</time>
   <time name="diis">   18.93   18.94</time>
   <time name="orth">    0.75    0.76</time>
   <time name="total">   24.93   24.96</time>
   <energy>
    <i name="e_fr_energy">   -680.35606397 </i>
    <i name="e_wo_entrp">   -680.35606397 </i>
    <i name="e_0_energy">   -680.35606397 </i>
   </energy>
  </scstep>
  <scstep>
   <time name="diag">    4.16    4.17</time>
   <time name="diis">   19.68   19.69</time>
   <time name="orth">    0.76    0.76</time>
   <time name="total">   25.70   25.74</time>
   <energy>
    <i name="e_fr_energy">   -680.35697618 </i>
    <i name="e_wo_entrp">   -680.35697618 </i>
    <i name="e_0_energy">   -680.35697618 </i>
   </energy>
  </scstep>
  <scstep>
   <time name="diag">    4.14    4.14</time>
   <time name="diis">   18.96   18.97</time>
   <time name="orth">    0.76    0.76</time>
   <time name="total">   24.98   25.02</time>
   <energy>
    <i name="e_fr_energy">   -680.35754696 </i>
    <i name="e_wo_entrp">   -680.35754696 </i>
    <i name="e_0_energy">   -680.35754696 </i>
   </energy>
  </scstep>
  <scstep>
   <time name="diag">    4.14    4.14</time>
   <time name="diis">   19.95   19.97</time>
   <time name="orth">    0.76    0.76</time>
   <time name="total">   25.96   25.99</time>
   <energy>
    <i name="e_fr_energy">   -680.35773431 </i>
    <i name="e_wo_entrp">   -680.35773431 </i>
    <i name="e_0_energy">   -680.35773431 </i>
   </energy>
  </scstep>
  <scstep>
   <time name="diag">    4.13    4.14</time>
   <time name="diis">   19.88   19.90</time>
   <time name="orth">    0.76    0.76</time>
   <time name="total">   25.91   25.94</time>
   <energy>
    <i name="e_fr_energy">   -680.35780474 </i>
    <i name="e_wo_entrp">   -680.35780474 </i>
    <i name="e_0_energy">   -680.35780474 </i>
   </energy>
  </scstep>
  <scstep>
   <time name="diag">    4.14    4.15</time>
   <time name="diis">   19.80   20.00</time>
   <time name="orth">    0.77    0.77</time>
   <time name="total">   25.82   26.04</time>
   <energy>
    <i name="e_fr_energy">   -680.35784038 </i>
    <i name="e_wo_entrp">   -680.35784038 </i>
    <i name="e_0_energy">   -680.35784038 </i>
   </energy>
  </scstep>
  <scstep>
   <time name="diag">    4.14    4.14</time>
   <time name="diis">   18.49   18.51</time>
   <time name="orth">    0.76    0.76</time>
   <time name="total">   24.51   24.55</time>
   <energy>
    <i name="e_fr_energy">   -680.35785167 </i>
    <i name="e_wo_entrp">   -680.35785167 </i>
    <i name="e_0_energy">   -680.35785167 </i>
   </energy>
  </scstep>
  <scstep>
   <time name="diag">    4.15    4.15</time>
   <time name="diis">   18.77   18.78</time>
   <time name="orth">    0.76    0.76</time>
   <time name="total">   24.78   24.81</time>
   <energy>
    <i name="e_fr_energy">   -680.35785854 </i>
    <i name="e_wo_entrp">   -680.35785854 </i>
    <i name="e_0_energy">   -680.35785854 </i>
   </energy>
  </scstep>
  <scstep>
   <time name="diag">    4.16    4.16</time>
   <time name="diis">   15.85   15.86</time>
   <time name="orth">    0.76    0.76</time>
   <time name="total">   21.88   21.91</time>
   <energy>
    <i name="e_fr_energy">   -680.35785956 </i>
    <i name="e_wo_entrp">   -680.35785956 </i>
    <i name="e_0_energy">   -680.35785956 </i>
   </energy>
  </scstep>
  <scstep>
   <time name="diag">    4.14    4.14</time>
   <time name="diis">   15.19   15.20</time>
   <time name="orth">    0.75    0.75</time>
   <time name="total">   21.22   21.24</time>
   <energy>
    <i name="e_fr_energy">   -680.35786077 </i>
    <i name="e_wo_entrp">   -680.35786077 </i>
    <i name="e_0_energy">   -680.35786077 </i>
   </energy>
  </scstep>
  <scstep>
   <time name="diag">    4.15    4.15</time>
   <time name="diis">   12.18   12.19</time>
   <time name="orth">    0.76    0.76</time>
   <time name="total">   17.16   17.18</time>
   <energy>
    <i name="alphaZ">   1631.38525256 </i>
    <i name="ewald"> -26746.99462426 </i>
    <i name="hartreedc"> -11050.38470764 </i>
    <i name="XCdc">   1513.02130292 </i>
    <i name="pawpsdc">  45663.09040303 </i>
    <i name="pawaedc"> -44994.25674701 </i>
    <i name="eentropy">      0.00000000 </i>
    <i name="bandstr">  -3777.06496943 </i>
    <i name="atom">  37080.84622879 </i>
    <i name="e_fr_energy">   -680.35786104 </i>
    <i name="e_wo_entrp">   -680.35786104 </i>
    <i name="e_0_energy">   -680.35786104 </i>
   </energy>
  </scstep>
  <structure>
   <crystal>
    <varray name="basis" >
     <v>       5.14357707      -2.96805212       9.20935144 </v>
     <v>       0.00246955       5.93768908       9.20848994 </v>
     <v>      -5.14097364      -2.96940062       9.20746997 </v>
    </varray>
    <i name="volume">    843.47881204 </i>
    <varray name="rec_basis" >
     <v>       0.09723397      -0.05615238       0.03618131 </v>
     <v>      -0.00002134       0.11227830       0.03619773 </v>
     <v>      -0.09723249      -0.05612688       0.03621702 </v>
    </varray>
   </crystal>
   <varray name="positions" >
    <v>       0.13834752       0.13936271       0.13984335 </v>
    <v>       0.39146324       0.38999630       0.39085144 </v>
    <v>       0.14028321       0.14032414       0.64092124 </v>
    <v>       0.39173469       0.39088444       0.89059988 </v>
    <v>       0.14005761       0.63914415       0.13990376 </v>
    <v>       0.38998511       0.89022976       0.39046082 </v>
    <v>       0.14027342       0.63856692       0.63942290 </v>
    <v>       0.39066873       0.89122478       0.89017412 </v>
    <v>       0.63968950       0.14081636       0.13851063 </v>
    <v>       0.89081879       0.39199278       0.39127564 </v>
    <v>       0.64044608       0.13979598       0.63895884 </v>
    <v>       0.89104424       0.39188824       0.88993991 </v>
    <v>       0.63987068       0.64050964       0.14005521 </v>
    <v>       0.88952244       0.89019616       0.39154151 </v>
    <v>       0.64095434       0.64008558       0.64144699 </v>
    <v>       0.89103108       0.89076076       0.89134632 </v>
    <v>       0.99959237       0.00150112       0.99675172 </v>
    <v>       0.99938324       0.00003493       0.49763958 </v>
    <v>       0.25168038       0.24891337       0.74959517 </v>
    <v>       0.99749990       0.49794372       0.00086033 </v>
    <v>       0.00052440       0.49715140       0.50088067 </v>
    <v>       0.49988249       0.99738472       0.00090131 </v>
    <v>       0.49954620       0.50003968       0.99785757 </v>
    <v>       0.75097315       0.74942469       0.24984287 </v>
    <v>       0.49985523       0.50129758       0.49655071 </v>
    <v>       0.74940214       0.75095878       0.74802348 </v>
    <v>       0.05623360       0.18120304       0.36059596 </v>
    <v>       0.36055215       0.05618073       0.18135900 </v>
    <v>       0.18067803       0.36043515       0.05635112 </v>
    <v>       0.43164615       0.30579781       0.11007695 </v>
    <v>       0.10933811       0.43208088       0.30572184 </v>
    <v>       0.30616879       0.11038237       0.43144631 </v>
    <v>       0.05540035       0.18155956       0.86034038 </v>
    <v>       0.35943918       0.05639020       0.68203455 </v>
    <v>       0.18159346       0.36067916       0.55556672 </v>
    <v>       0.43176800       0.30520898       0.61104129 </v>
    <v>       0.11066152       0.43074915       0.80539644 </v>
    <v>       0.30515946       0.11079423       0.93190663 </v>
    <v>       0.05604537       0.68076856       0.36081137 </v>
    <v>       0.36061507       0.55618152       0.18081868 </v>
    <v>       0.18040413       0.86090372       0.05629587 </v>
    <v>       0.43096027       0.80670950       0.10983535 </v>
    <v>       0.11018018       0.93120277       0.30647725 </v>
    <v>       0.30631393       0.60963452       0.43142758 </v>
    <v>       0.05642617       0.67983109       0.86072292 </v>
    <v>       0.36082901       0.55621291       0.68039936 </v>
    <v>       0.18050111       0.86073339       0.55625759 </v>
    <v>       0.43105925       0.80638098       0.60992686 </v>
    <v>       0.10974163       0.93076687       0.80662904 </v>
    <v>       0.30592914       0.60973059       0.93157562 </v>
    <v>       0.55668960       0.18089021       0.36049958 </v>
    <v>       0.86099568       0.05588109       0.18065345 </v>
    <v>       0.68094161       0.36072792       0.05606070 </v>
    <v>       0.93094987       0.30643726       0.10970186 </v>
    <v>       0.61015919       0.43137998       0.30635721 </v>
    <v>       0.80662739       0.10979363       0.43135599 </v>
    <v>       0.55625493       0.18016866       0.86082204 </v>
    <v>       0.86060460       0.05601788       0.68054061 </v>
    <v>       0.68056339       0.36084158       0.55626059 </v>
    <v>       0.93128773       0.30623948       0.60979445 </v>
    <v>       0.61008613       0.43101265       0.80636497 </v>
    <v>       0.80623116       0.10929440       0.93147945 </v>
    <v>       0.55554077       0.68183433       0.36007734 </v>
    <v>       0.86007458       0.55634829       0.18046819 </v>
    <v>       0.68107200       0.86046774       0.05575260 </v>
    <v>       0.93136114       0.80492582       0.11095065 </v>
    <v>       0.61067752       0.93165297       0.30547765 </v>
    <v>       0.80503784       0.61074302       0.43111591 </v>
    <v>       0.55556968       0.68082022       0.86090541 </v>
    <v>       0.86059508       0.55581627       0.68050717 </v>
    <v>       0.68097931       0.85972506       0.55655493 </v>
    <v>       0.93138973       0.80539064       0.61084254 </v>
    <v>       0.61024363       0.93134011       0.80571432 </v>
    <v>       0.80584636       0.61083297       0.93009391 </v>
    <v>       0.24862253       0.24992729       0.24762435 </v>
    <v>       0.24806756       0.74806531       0.24849505 </v>
    <v>       0.24752603       0.74745881       0.74934160 </v>
    <v>       0.74730972       0.24776208       0.24918815 </v>
    <v>       0.49682629       0.99767190       0.50015434 </v>
    <v>       0.74834988       0.24827406       0.74832874 </v>
   </varray>
  </structure>
  <varray name="forces" >
   <v>       0.00091894      -0.00035502       0.00365667 </v>
   <v>      -0.00036754       0.00096180       0.00154965 </v>
   <v>      -0.00003633      -0.00032641       0.00176568 </v>
   <v>      -0.00093056       0.00062004       0.00127305 </v>
   <v>       0.00017645      -0.00064289       0.00309393 </v>
   <v>       0.00057687      -0.00070991       0.00213522 </v>
   <v>       0.00018518       0.00088341       0.00342492 </v>
   <v>       0.00105265       0.00027661       0.00172013 </v>
   <v>      -0.00025869      -0.00008704       0.00286097 </v>
   <v>       0.00097621      -0.00118799       0.00056428 </v>
   <v>      -0.00011591       0.00006841       0.00324834 </v>
   <v>      -0.00044060      -0.00202961       0.00081396 </v>
   <v>      -0.00120326      -0.00080786       0.00258021 </v>
   <v>      -0.00019291       0.00030660       0.00178045 </v>
   <v>       0.00004503       0.00056215       0.00145894 </v>
   <v>      -0.00027928       0.00138931       0.00125398 </v>
   <v>       0.00487540       0.00639383       0.04235428 </v>
   <v>       0.00237489       0.00309373       0.03838944 </v>
   <v>       0.00382279      -0.00245476       0.04737491 </v>
   <v>      -0.00665723      -0.00212543       0.03997808 </v>
   <v>      -0.00185712      -0.00791084       0.04445943 </v>
   <v>       0.00043777      -0.00683553       0.04239300 </v>
   <v>       0.00426294       0.00439788       0.03983801 </v>
   <v>       0.00329474      -0.00478771       0.04954417 </v>
   <v>       0.00438035       0.00542051       0.04031668 </v>
   <v>       0.00227798       0.00251731       0.04472485 </v>
   <v>      -0.00436694      -0.06573274      -0.00780666 </v>
   <v>       0.05918345       0.02905597      -0.00756751 </v>
   <v>      -0.05668138       0.03328214      -0.00587760 </v>
   <v>      -0.07296721       0.02008168      -0.02146833 </v>
   <v>       0.01866076      -0.07400354      -0.02025513 </v>
   <v>       0.05630256       0.03777054      -0.00873904 </v>
   <v>      -0.02028138      -0.07145793      -0.02042410 </v>
   <v>       0.06995107       0.02186237      -0.02002122 </v>
   <v>      -0.05279858       0.05050179      -0.01786686 </v>
   <v>      -0.07001298       0.01932719      -0.01785144 </v>
   <v>       0.01492499      -0.06995273      -0.01502415 </v>
   <v>       0.05164402       0.04803630      -0.01871227 </v>
   <v>      -0.00242879      -0.06404436      -0.00412679 </v>
   <v>       0.05587044       0.02989996      -0.00525101 </v>
   <v>      -0.05278823       0.03574702      -0.00665161 </v>
   <v>      -0.06677394       0.02301781      -0.01807049 </v>
   <v>       0.01386565      -0.07034701      -0.01717394 </v>
   <v>       0.05434548       0.04727378      -0.01630432 </v>
   <v>      -0.00147770      -0.06252550      -0.00444513 </v>
   <v>       0.05704420       0.03019077      -0.00560734 </v>
   <v>      -0.05435875       0.03632002      -0.00857290 </v>
   <v>      -0.05943032       0.03046031      -0.00906162 </v>
   <v>       0.01452565      -0.06924088      -0.01716630 </v>
   <v>       0.05396666       0.04892752      -0.02064501 </v>
   <v>      -0.00356338      -0.06501812      -0.00777259 </v>
   <v>       0.05837075       0.03055709      -0.00624392 </v>
   <v>      -0.05326864       0.03503910      -0.00576549 </v>
   <v>      -0.06529923       0.02358309      -0.01547665 </v>
   <v>       0.01424376      -0.07064457      -0.01749578 </v>
   <v>       0.05331806       0.04658054      -0.01960587 </v>
   <v>      -0.00373963      -0.06552779      -0.00514419 </v>
   <v>       0.05684208       0.02912315      -0.00660604 </v>
   <v>      -0.05385228       0.03653139      -0.00506474 </v>
   <v>      -0.06890459       0.02187565      -0.01677650 </v>
   <v>       0.01660860      -0.06930735      -0.01804196 </v>
   <v>       0.05443649       0.05063096      -0.01741072 </v>
   <v>      -0.01759087      -0.07074674      -0.02030860 </v>
   <v>       0.06731131       0.02082379      -0.01681435 </v>
   <v>      -0.05283575       0.05158749      -0.01959080 </v>
   <v>      -0.07190434       0.01826872      -0.01886811 </v>
   <v>       0.00554382      -0.06555223      -0.00804799 </v>
   <v>       0.05232890       0.05451639      -0.01964201 </v>
   <v>      -0.01771777      -0.06978109      -0.02043984 </v>
   <v>       0.06879275       0.01739604      -0.01647888 </v>
   <v>      -0.05520440       0.04744430      -0.01815095 </v>
   <v>      -0.06703240       0.02162278      -0.01708972 </v>
   <v>       0.01477944      -0.06893452      -0.01687882 </v>
   <v>       0.05057314       0.04564194      -0.01227585 </v>
   <v>       0.00275763       0.00110688       0.03614641 </v>
   <v>       0.00118208       0.00217957       0.03416247 </v>
   <v>      -0.00289600       0.00056447       0.03379427 </v>
   <v>      -0.00098074      -0.00009630       0.03234401 </v>
   <v>      -0.00506892      -0.00142474       0.03250710 </v>
   <v>      -0.00046735       0.00087906       0.02917366 </v>
  </varray>
  <varray name="stress" >
   <v>     -14.28087470      -0.00401490       0.00654587 </v>
   <v>      -0.00401471     -14.27189263       0.00563692 </v>
   <v>       0.00654598       0.00563681     -13.18750675 </v>
  </varray>
  <energy>
   <i name="e_fr_energy">   -680.35786104 </i>
   <i name="e_wo_entrp">   -680.35786104 </i>
   <i name="e_0_energy">      0.00000000 </i>
  </energy>
  <time name="totalsc">  685.90  686.98</time>
 </calculation>
 <calculation>
  <scstep>
   <time name="dav">   37.17   37.19</time>
   <time name="total">   38.30   38.33</time>
   <energy>
    <i name="alphaZ">   1631.38525256 </i>
    <i name="ewald"> -26742.66145310 </i>
    <i name="hartreedc"> -11053.78009465 </i>
    <i name="XCdc">   1513.06661996 </i>
    <i name="pawpsdc">  45663.11434769 </i>
    <i name="pawaedc"> -44994.27111222 </i>
    <i name="eentropy">      0.00000000 </i>
    <i name="bandstr">  -3778.06050429 </i>
    <i name="atom">  37080.84622879 </i>
    <i name="e_fr_energy">   -680.36071526 </i>
    <i name="e_wo_entrp">   -680.36071526 </i>
    <i name="e_0_energy">   -680.36071526 </i>
   </energy>
  </scstep>
  <scstep>
   <time name="diag">    4.15    4.16</time>
   <time name="diis">   14.47   14.48</time>
   <time name="orth">    0.76    0.76</time>
   <time name="total">   20.49   20.53</time>
   <energy>
    <i name="e_fr_energy">   -680.36132283 </i>
    <i name="e_wo_entrp">   -680.36132283 </i>
    <i name="e_0_energy">   -680.36132283 </i>
   </energy>
  </scstep>
  <scstep>
   <time name="diag">    4.15    4.15</time>
   <time name="diis">   15.73   15.74</time>
   <time name="orth">    0.76    0.76</time>
   <time name="total">   21.74   21.78</time>
   <energy>
    <i name="e_fr_energy">   -680.36124790 </i>
    <i name="e_wo_entrp">   -680.36124790 </i>
    <i name="e_0_energy">   -680.36124790 </i>
   </energy>
  </scstep>
  <scstep>
   <time name="diag">    4.15    4.15</time>
   <time name="diis">   18.93   18.94</time>
   <time name="orth">    0.78    0.78</time>
   <time name="total">   24.96   24.99</time>
   <energy>
    <i name="e_fr_energy">   -680.36124810 </i>
    <i name="e_wo_entrp">   -680.36124810 </i>
    <i name="e_0_energy">   -680.36124810 </i>
   </energy>
  </scstep>
  <scstep>
   <time name="diag">    4.15    4.15</time>
   <time name="diis">   18.16   18.18</time>
   <time name="orth">    0.76    0.77</time>
   <time name="total">   24.22   24.26</time>
   <energy>
    <i name="e_fr_energy">   -680.36124936 </i>
    <i name="e_wo_entrp">   -680.36124936 </i>
    <i name="e_0_energy">   -680.36124936 </i>
   </energy>
  </scstep>
  <scstep>
   <time name="diag">    4.16    4.16</time>
   <time name="diis">   13.83   13.85</time>
   <time name="orth">    0.76    0.76</time>
   <time name="total">   18.81   18.86</time>
   <energy>
    <i name="alphaZ">   1631.38525256 </i>
    <i name="ewald"> -26742.66145310 </i>
    <i name="hartreedc"> -11054.80726247 </i>
    <i name="XCdc">   1513.10454570 </i>
    <i name="pawpsdc">  45708.74550048 </i>
    <i name="pawaedc"> -45039.85146939 </i>
    <i name="eentropy">      0.00000000 </i>
    <i name="bandstr">  -3777.12259201 </i>
    <i name="atom">  37080.84622879 </i>
    <i name="e_fr_energy">   -680.36124945 </i>
    <i name="e_wo_entrp">   -680.36124945 </i>
    <i name="e_0_energy">   -680.36124945 </i>
   </energy>
  </scstep>
  <structure>
   <crystal>
    <varray name="basis" >
     <v>       5.14340394      -2.96794782       9.20998978 </v>
     <v>       0.00247294       5.93749131       9.20912979 </v>
     <v>      -5.14078685      -2.96929234       9.20810176 </v>
    </varray>
    <i name="volume">    843.47881204 </i>
    <varray name="rec_basis" >
     <v>       0.09723732      -0.05615428       0.03617878 </v>
     <v>      -0.00002132       0.11228211       0.03619517 </v>
     <v>      -0.09723594      -0.05612885       0.03621461 </v>
    </varray>
   </crystal>
   <varray name="positions" >
    <v>       0.13835102       0.13936405       0.13984426 </v>
    <v>       0.39146275       0.38999868       0.39085199 </v>
    <v>       0.14028435       0.14032454       0.64092249 </v>
    <v>       0.39173355       0.39088611       0.89060135 </v>
    <v>       0.14006000       0.63914473       0.13990565 </v>
    <v>       0.38998762       0.89022973       0.39046170 </v>
    <v>       0.14027476       0.63857015       0.63942372 </v>
    <v>       0.39067088       0.89122613       0.89017332 </v>
    <v>       0.63969071       0.14081772       0.13851256 </v>
    <v>       0.89082142       0.39199115       0.39127553 </v>
    <v>       0.64044756       0.13979779       0.63896065 </v>
    <v>       0.89104570       0.39188537       0.88994261 </v>
    <v>       0.63987100       0.64050968       0.14005891 </v>
    <v>       0.88952286       0.89019759       0.39154247 </v>
    <v>       0.64095471       0.64008726       0.64144723 </v>
    <v>       0.89103021       0.89076368       0.89134624 </v>
    <v>       0.99961622       0.00153369       0.99676187 </v>
    <v>       0.99940417       0.00006007       0.49765385 </v>
    <v>       0.25171256       0.24893420       0.74961662 </v>
    <v>       0.99751319       0.49796121       0.00089238 </v>
    <v>       0.00055149       0.49716184       0.50091301 </v>
    <v>       0.49991086       0.99739582       0.00092846 </v>
    <v>       0.49956949       0.50006769       0.99786888 </v>
    <v>       0.75100763       0.74944287       0.24986809 </v>
    <v>       0.49987810       0.50132751       0.49656128 </v>
    <v>       0.74942672       0.75098630       0.74804167 </v>
    <v>       0.05627679       0.18109214       0.36065141 </v>
    <v>       0.36060786       0.05622396       0.18124815 </v>
    <v>       0.18056814       0.36048617       0.05640076 </v>
    <v>       0.43151591       0.30581922       0.11015206 </v>
    <v>       0.10941390       0.43195001       0.30574508 </v>
    <v>       0.30621275       0.11043916       0.43133182 </v>
    <v>       0.05541919       0.18143274       0.86041626 </v>
    <v>       0.35950936       0.05641521       0.68190786 </v>
    <v>       0.18146876       0.36075188       0.55559064 </v>
    <v>       0.43164442       0.30523105       0.61111475 </v>
    <v>       0.11073150       0.43062760       0.80542439 </v>
    <v>       0.30518330       0.11086247       0.93178513 </v>
    <v>       0.05609184       0.68066233       0.36086464 </v>
    <v>       0.36066664       0.55622734       0.18071302 </v>
    <v>       0.18029731       0.86095834       0.05633764 </v>
    <v>       0.43083814       0.80673746       0.10990115 </v>
    <v>       0.11024787       0.93107945       0.30650588 </v>
    <v>       0.30634345       0.60970278       0.43130416 </v>
    <v>       0.05647257       0.67972716       0.86077346 </v>
    <v>       0.36088181       0.55625902       0.68029162 </v>
    <v>       0.18039061       0.86078793       0.55630009 </v>
    <v>       0.43094612       0.80642575       0.60998099 </v>
    <v>       0.10980935       0.93064536       0.80665585 </v>
    <v>       0.30595452       0.60979926       0.93144911 </v>
    <v>       0.55673336       0.18078048       0.36055334 </v>
    <v>       0.86104972       0.05592745       0.18054322 </v>
    <v>       0.68083515       0.36078186       0.05610418 </v>
    <v>       0.93083071       0.30646749       0.10976649 </v>
    <v>       0.61022748       0.43125602       0.30638539 </v>
    <v>       0.80665430       0.10985904       0.43123284 </v>
    <v>       0.55630023       0.18005948       0.86087783 </v>
    <v>       0.86065746       0.05606172       0.68043350 </v>
    <v>       0.68045527       0.36089830       0.55630404 </v>
    <v>       0.93116420       0.30626626       0.60986485 </v>
    <v>       0.61015638       0.43089057       0.80638844 </v>
    <v>       0.80625750       0.10936754       0.93135259 </v>
    <v>       0.55556288       0.68170873       0.36014892 </v>
    <v>       0.86014358       0.55637330       0.18034774 </v>
    <v>       0.68094546       0.86054133       0.05577478 </v>
    <v>       0.93123523       0.80494564       0.11102711 </v>
    <v>       0.61073438       0.93154223       0.30551888 </v>
    <v>       0.80505689       0.61082131       0.43098769 </v>
    <v>       0.55559076       0.68069613       0.86097632 </v>
    <v>       0.86066912       0.55583588       0.68038759 </v>
    <v>       0.68085356       0.85979266       0.55658456 </v>
    <v>       0.93126888       0.80541684       0.61091035 </v>
    <v>       0.61031161       0.93121925       0.80574067 </v>
    <v>       0.80587401       0.61090069       0.92997923 </v>
    <v>       0.24864444       0.24994802       0.24763852 </v>
    <v>       0.24808534       0.74808675       0.24850952 </v>
    <v>       0.24753919       0.74747743       0.74936293 </v>
    <v>       0.74732536       0.24777886       0.24920656 </v>
    <v>       0.49683734       0.99768661       0.50017967 </v>
    <v>       0.74836379       0.24829077       0.74834397 </v>
   </varray>
  </structure>
  <varray name="forces" >
   <v>       0.00066844      -0.00041691       0.00304062 </v>
   <v>       0.00033633       0.00081339       0.00114464 </v>
   <v>       0.00044391      -0.00051676       0.00080151 </v>
   <v>      -0.00075185       0.00061465       0.00140483 </v>
   <v>       0.00034281      -0.00114648       0.00301893 </v>
   <v>       0.00026545      -0.00050459       0.00246348 </v>
   <v>       0.00057716       0.00062656       0.00320912 </v>
   <v>       0.00089093       0.00039375       0.00129277 </v>
   <v>      -0.00051376       0.00012172       0.00268722 </v>
   <v>       0.00089225      -0.00183431       0.00070629 </v>
   <v>       0.00031610       0.00022291       0.00279424 </v>
   <v>      -0.00078617      -0.00209605       0.00082062 </v>
   <v>      -0.00155670      -0.00093620       0.00150752 </v>
   <v>      -0.00019578       0.00052806       0.00136718 </v>
[...]
       <r>    1.7121    1.0000 </r>
       <r>    1.7242    1.0000 </r>
       <r>    1.7377    1.0000 </r>
       <r>    1.7493    1.0000 </r>
       <r>    1.8464    1.0000 </r>
       <r>    1.8662    1.0000 </r>
       <r>    1.8822    1.0000 </r>
       <r>    1.8964    1.0000 </r>
       <r>    1.9258    1.0000 </r>
       <r>    1.9533    1.0000 </r>
       <r>    1.9695    1.0000 </r>
       <r>    2.0040    1.0000 </r>
       <r>    2.0267    1.0000 </r>
       <r>    2.0361    1.0000 </r>
       <r>    2.0535    1.0000 </r>
       <r>    2.0653    1.0000 </r>
       <r>    2.0791    1.0000 </r>
       <r>    2.1068    1.0000 </r>
       <r>    2.1221    1.0000 </r>
       <r>    2.1346    1.0000 </r>
       <r>    2.1575    1.0000 </r>
       <r>    2.1790    1.0000 </r>
       <r>    2.1888    1.0000 </r>
       <r>    2.2331    1.0000 </r>
       <r>    2.2745    1.0000 </r>
       <r>    2.2846    1.0000 </r>
       <r>    2.2910    1.0000 </r>
       <r>    2.3035    1.0000 </r>
       <r>    2.3103    1.0000 </r>
       <r>    2.3231    1.0000 </r>
       <r>    2.3382    1.0000 </r>
       <r>    2.3491    1.0000 </r>
       <r>    2.4039    1.0000 </r>
       <r>    2.4267    1.0000 </r>
       <r>    2.4537    1.0000 </r>
       <r>    2.4624    1.0000 </r>
       <r>    2.5980    1.0000 </r>
       <r>    2.6153    1.0000 </r>
       <r>    2.6212    1.0000 </r>
       <r>    2.6375    1.0000 </r>
       <r>    2.6438    1.0000 </r>
       <r>    2.6664    1.0000 </r>
       <r>    2.6727    1.0000 </r>
       <r>    2.6827    1.0000 </r>
       <r>    2.6973    1.0000 </r>
       <r>    2.7265    1.0000 </r>
       <r>    6.4134    0.0000 </r>
       <r>    6.4403    0.0000 </r>
       <r>    6.5756    0.0000 </r>
       <r>    6.6121    0.0000 </r>
       <r>    6.6518    0.0000 </r>
       <r>    6.6681    0.0000 </r>
       <r>    6.7175    0.0000 </r>
       <r>    6.7257    0.0000 </r>
       <r>    6.7519    0.0000 </r>
       <r>    6.7756    0.0000 </r>
       <r>    6.7997    0.0000 </r>
       <r>    6.8227    0.0000 </r>
       <r>    6.8458    0.0000 </r>
       <r>    6.8887    0.0000 </r>
       <r>    6.8984    0.0000 </r>
       <r>    6.9585    0.0000 </r>
       <r>    6.9915    0.0000 </r>
       <r>    7.1610    0.0000 </r>
       <r>    7.2120    0.0000 </r>
       <r>    7.2264    0.0000 </r>
       <r>    7.2561    0.0000 </r>
       <r>    7.3362    0.0000 </r>
       <r>    7.4293    0.0000 </r>
       <r>    7.4579    0.0000 </r>
       <r>    7.5974    0.0000 </r>
       <r>    7.6320    0.0000 </r>
       <r>    7.6834    0.0000 </r>
       <r>    7.7366    0.0000 </r>
       <r>    7.7658    0.0000 </r>
       <r>    7.8006    0.0000 </r>
       <r>    7.8808    0.0000 </r>
       <r>    7.9014    0.0000 </r>
       <r>    7.9852    0.0000 </r>
       <r>    8.0550    0.0000 </r>
       <r>    8.0791    0.0000 </r>
       <r>    8.0995    0.0000 </r>
       <r>    8.1259    0.0000 </r>
       <r>    8.1595    0.0000 </r>
       <r>    8.1810    0.0000 </r>
       <r>    8.2562    0.0000 </r>
       <r>    8.3329    0.0000 </r>
       <r>    8.3749    0.0000 </r>
       <r>    8.4295    0.0000 </r>
       <r>    8.4541    0.0000 </r>
       <r>    8.4789    0.0000 </r>
       <r>    8.5096    0.0000 </r>
       <r>    8.5363    0.0000 </r>
       <r>    8.6408    0.0000 </r>
       <r>   10.3197    0.0000 </r>
       <r>   10.5042    0.0000 </r>
       <r>   10.5434    0.0000 </r>
       <r>   10.6046    0.0000 </r>
       <r>   10.6814    0.0000 </r>
       <r>   10.7018    0.0000 </r>
       <r>   10.7887    0.0000 </r>
       <r>   10.8351    0.0000 </r>
      </set>
      <set comment="kpoint 36">
       <r>  -51.3671    1.0000 </r>
       <r>  -51.3641    1.0000 </r>
       <r>  -51.3469    1.0000 </r>
       <r>  -51.3423    1.0000 </r>
       <r>  -51.3298    1.0000 </r>
       <r>  -51.3253    1.0000 </r>
       <r>  -51.3054    1.0000 </r>
       <r>  -51.3022    1.0000 </r>
       <r>  -51.2996    1.0000 </r>
       <r>  -51.2774    1.0000 </r>
       <r>  -27.6713    1.0000 </r>
       <r>  -27.6689    1.0000 </r>
       <r>  -27.6661    1.0000 </r>
       <r>  -27.6588    1.0000 </r>
       <r>  -27.6552    1.0000 </r>
       <r>  -27.6479    1.0000 </r>
       <r>  -27.6371    1.0000 </r>
       <r>  -27.6288    1.0000 </r>
       <r>  -27.6263    1.0000 </r>
       <r>  -27.6150    1.0000 </r>
       <r>  -27.6004    1.0000 </r>
       <r>  -27.5940    1.0000 </r>
       <r>  -27.5891    1.0000 </r>
       <r>  -27.5871    1.0000 </r>
       <r>  -27.5850    1.0000 </r>
       <r>  -27.5711    1.0000 </r>
       <r>  -27.5681    1.0000 </r>
       <r>  -27.5635    1.0000 </r>
       <r>  -27.5538    1.0000 </r>
       <r>  -27.5502    1.0000 </r>
       <r>  -27.5321    1.0000 </r>
       <r>  -27.5307    1.0000 </r>
       <r>  -27.5195    1.0000 </r>
       <r>  -27.5046    1.0000 </r>
       <r>  -27.5025    1.0000 </r>
       <r>  -27.4983    1.0000 </r>
       <r>  -27.4843    1.0000 </r>
       <r>  -27.4598    1.0000 </r>
       <r>  -27.4546    1.0000 </r>
       <r>  -27.4403    1.0000 </r>
       <r>  -14.1710    1.0000 </r>
       <r>  -14.1175    1.0000 </r>
       <r>  -13.8993    1.0000 </r>
       <r>  -13.8586    1.0000 </r>
       <r>  -13.8498    1.0000 </r>
       <r>  -13.7802    1.0000 </r>
       <r>  -13.7508    1.0000 </r>
       <r>  -13.7247    1.0000 </r>
       <r>  -13.5696    1.0000 </r>
       <r>  -13.5346    1.0000 </r>
       <r>  -13.5187    1.0000 </r>
       <r>  -13.5141    1.0000 </r>
       <r>  -13.5112    1.0000 </r>
       <r>  -13.4936    1.0000 </r>
       <r>  -13.4336    1.0000 </r>
       <r>  -13.4287    1.0000 </r>
       <r>  -13.4235    1.0000 </r>
       <r>  -13.4081    1.0000 </r>
       <r>  -13.3827    1.0000 </r>
       <r>  -13.3699    1.0000 </r>
       <r>  -13.3635    1.0000 </r>
       <r>  -13.3505    1.0000 </r>
       <r>  -13.3479    1.0000 </r>
       <r>  -13.3313    1.0000 </r>
       <r>  -12.9944    1.0000 </r>
       <r>  -12.9507    1.0000 </r>
       <r>  -12.9255    1.0000 </r>
       <r>  -12.9028    1.0000 </r>
       <r>  -12.8909    1.0000 </r>
       <r>  -12.8881    1.0000 </r>
       <r>  -12.8749    1.0000 </r>
       <r>  -12.8719    1.0000 </r>
       <r>  -12.8519    1.0000 </r>
       <r>  -12.8373    1.0000 </r>
       <r>  -12.8320    1.0000 </r>
       <r>  -12.8085    1.0000 </r>
       <r>  -12.8043    1.0000 </r>
       <r>  -12.7671    1.0000 </r>
       <r>  -12.7554    1.0000 </r>
       <r>  -12.7419    1.0000 </r>
       <r>  -12.7408    1.0000 </r>
       <r>  -12.7331    1.0000 </r>
       <r>  -12.7230    1.0000 </r>
       <r>  -12.6703    1.0000 </r>
       <r>  -12.6284    1.0000 </r>
       <r>  -12.6069    1.0000 </r>
       <r>  -12.5860    1.0000 </r>
       <r>  -12.5755    1.0000 </r>
       <r>   -1.8369    1.0000 </r>
       <r>   -1.8253    1.0000 </r>
       <r>   -1.8206    1.0000 </r>
       <r>   -1.7912    1.0000 </r>
       <r>   -1.7356    1.0000 </r>
       <r>   -1.7028    1.0000 </r>
       <r>   -1.6967    1.0000 </r>
       <r>   -1.6368    1.0000 </r>
       <r>   -1.6297    1.0000 </r>
       <r>   -1.6208    1.0000 </r>
       <r>   -1.6188    1.0000 </r>
       <r>   -1.6049    1.0000 </r>
       <r>   -1.6020    1.0000 </r>
       <r>   -1.6008    1.0000 </r>
       <r>   -1.5828    1.0000 </r>
       <r>   -1.5616    1.0000 </r>
       <r>   -1.5375    1.0000 </r>
       <r>   -1.5318    1.0000 </r>
       <r>   -1.5293    1.0000 </r>
       <r>   -1.5184    1.0000 </r>
       <r>   -1.5157    1.0000 </r>
       <r>   -1.5113    1.0000 </r>
       <r>   -1.3919    1.0000 </r>
       <r>   -1.3580    1.0000 </r>
       <r>   -1.3313    1.0000 </r>
       <r>   -1.3042    1.0000 </r>
       <r>   -1.2944    1.0000 </r>
       <r>   -1.2754    1.0000 </r>
       <r>   -1.2533    1.0000 </r>
       <r>   -1.2364    1.0000 </r>
       <r>   -1.1065    1.0000 </r>
       <r>   -1.1036    1.0000 </r>
       <r>   -1.0816    1.0000 </r>
       <r>   -1.0783    1.0000 </r>
       <r>   -0.6953    1.0000 </r>
       <r>   -0.6121    1.0000 </r>
       <r>   -0.6046    1.0000 </r>
       <r>   -0.5920    1.0000 </r>
       <r>   -0.5708    1.0000 </r>
       <r>   -0.5622    1.0000 </r>
       <r>   -0.5554    1.0000 </r>
       <r>   -0.5391    1.0000 </r>
       <r>   -0.3126    1.0000 </r>
       <r>   -0.2918    1.0000 </r>
       <r>   -0.2903    1.0000 </r>
       <r>   -0.2792    1.0000 </r>
       <r>   -0.2761    1.0000 </r>
       <r>   -0.2681    1.0000 </r>
       <r>   -0.0435    1.0000 </r>
       <r>   -0.0244    1.0000 </r>
       <r>   -0.0152    1.0000 </r>
       <r>   -0.0014    1.0000 </r>
       <r>    0.0065    1.0000 </r>
       <r>    0.0163    1.0000 </r>
       <r>    0.0971    1.0000 </r>
       <r>    0.1020    1.0000 </r>
       <r>    0.1316    1.0000 </r>
       <r>    0.1348    1.0000 </r>
       <r>    0.1392    1.0000 </r>
       <r>    0.1441    1.0000 </r>
       <r>    0.2138    1.0000 </r>
       <r>    0.2305    1.0000 </r>
       <r>    0.2370    1.0000 </r>
       <r>    0.2427    1.0000 </r>
       <r>    0.2483    1.0000 </r>
       <r>    0.2527    1.0000 </r>
       <r>    0.5944    1.0000 </r>
       <r>    0.6087    1.0000 </r>
       <r>    0.6218    1.0000 </r>
       <r>    0.6503    1.0000 </r>
       <r>    0.6557    1.0000 </r>
       <r>    0.6790    1.0000 </r>
       <r>    0.8322    1.0000 </r>
       <r>    0.8437    1.0000 </r>
       <r>    0.8451    1.0000 </r>
       <r>    0.8662    1.0000 </r>
       <r>    0.8760    1.0000 </r>
       <r>    0.8891    1.0000 </r>
       <r>    1.2737    1.0000 </r>
       <r>    1.2789    1.0000 </r>
       <r>    1.3009    1.0000 </r>
       <r>    1.3042    1.0000 </r>
       <r>    1.3605    1.0000 </r>
       <r>    1.3774    1.0000 </r>
       <r>    1.3799    1.0000 </r>
       <r>    1.4013    1.0000 </r>
       <r>    1.4057    1.0000 </r>
       <r>    1.4170    1.0000 </r>
       <r>    1.4229    1.0000 </r>
       <r>    1.4424    1.0000 </r>
       <r>    1.4496    1.0000 </r>
       <r>    1.4531    1.0000 </r>
       <r>    1.4651    1.0000 </r>
       <r>    1.4836    1.0000 </r>
       <r>    1.5677    1.0000 </r>
       <r>    1.5933    1.0000 </r>
       <r>    1.6752    1.0000 </r>
       <r>    1.6951    1.0000 </r>
       <r>    1.7970    1.0000 </r>
       <r>    1.8009    1.0000 </r>
       <r>    1.8281    1.0000 </r>
       <r>    1.8303    1.0000 </r>
       <r>    1.8393    1.0000 </r>
       <r>    1.8517    1.0000 </r>
       <r>    1.9417    1.0000 </r>
       <r>    1.9481    1.0000 </r>
       <r>    1.9531    1.0000 </r>
       <r>    1.9579    1.0000 </r>
       <r>    1.9656    1.0000 </r>
       <r>    1.9777    1.0000 </r>
       <r>    2.0245    1.0000 </r>
       <r>    2.0250    1.0000 </r>
       <r>    2.0329    1.0000 </r>
       <r>    2.0348    1.0000 </r>
       <r>    2.0418    1.0000 </r>
       <r>    2.0478    1.0000 </r>
       <r>    2.1565    1.0000 </r>
       <r>    2.1657    1.0000 </r>
       <r>    2.1891    1.0000 </r>
       <r>    2.1924    1.0000 </r>
       <r>    2.1996    1.0000 </r>
       <r>    2.2046    1.0000 </r>
       <r>    2.2098    1.0000 </r>
       <r>    2.2177    1.0000 </r>
       <r>    2.2185    1.0000 </r>
       <r>    2.2262    1.0000 </r>
       <r>    2.2717    1.0000 </r>
       <r>    2.2835    1.0000 </r>
       <r>    2.3049    1.0000 </r>
       <r>    2.3086    1.0000 </r>
       <r>    2.3152    1.0000 </r>
       <r>    2.3256    1.0000 </r>
       <r>    2.3298    1.0000 </r>
       <r>    2.3342    1.0000 </r>
       <r>    2.6481    1.0000 </r>
       <r>    2.6552    1.0000 </r>
       <r>    2.6603    1.0000 </r>
       <r>    2.6646    1.0000 </r>
       <r>    2.6738    1.0000 </r>
       <r>    2.6796    1.0000 </r>
       <r>    2.7244    1.0000 </r>
       <r>    2.7275    1.0000 </r>
       <r>    2.7612    1.0000 </r>
       <r>    2.7659    1.0000 </r>
       <r>    6.5610    0.0000 </r>
       <r>    6.5971    0.0000 </r>
       <r>    6.6036    0.0000 </r>
       <r>    6.6454    0.0000 </r>
       <r>    6.6551    0.0000 </r>
       <r>    6.6637    0.0000 </r>
       <r>    6.6874    0.0000 </r>
       <r>    6.6924    0.0000 </r>
       <r>    6.7176    0.0000 </r>
       <r>    6.7487    0.0000 </r>
       <r>    6.7554    0.0000 </r>
       <r>    6.7862    0.0000 </r>
       <r>    6.7917    0.0000 </r>
       <r>    6.8227    0.0000 </r>
       <r>    6.8414    0.0000 </r>
       <r>    6.8635    0.0000 </r>
       <r>    6.8975    0.0000 </r>
       <r>    6.9950    0.0000 </r>
       <r>    7.2815    0.0000 </r>
       <r>    7.2938    0.0000 </r>
       <r>    7.2946    0.0000 </r>
       <r>    7.3624    0.0000 </r>
       <r>    7.4219    0.0000 </r>
       <r>    7.4563    0.0000 </r>
       <r>    7.6455    0.0000 </r>
       <r>    7.6879    0.0000 </r>
       <r>    7.7133    0.0000 </r>
       <r>    7.7380    0.0000 </r>
       <r>    7.7878    0.0000 </r>
       <r>    7.8174    0.0000 </r>
       <r>    7.8817    0.0000 </r>
       <r>    7.9321    0.0000 </r>
       <r>    7.9891    0.0000 </r>
       <r>    8.0612    0.0000 </r>
       <r>    8.0747    0.0000 </r>
       <r>    8.1193    0.0000 </r>
       <r>    8.2006    0.0000 </r>
       <r>    8.2441    0.0000 </r>
       <r>    8.2745    0.0000 </r>
       <r>    8.3090    0.0000 </r>
       <r>    8.3406    0.0000 </r>
       <r>    8.3522    0.0000 </r>
       <r>    8.4079    0.0000 </r>
       <r>    8.4211    0.0000 </r>
       <r>    8.4348    0.0000 </r>
       <r>    8.4782    0.0000 </r>
       <r>    8.5117    0.0000 </r>
       <r>    8.5904    0.0000 </r>
       <r>   10.5185    0.0000 </r>
       <r>   10.5343    0.0000 </r>
       <r>   10.5587    0.0000 </r>
       <r>   10.5868    0.0000 </r>
       <r>   10.6325    0.0000 </r>
       <r>   10.7367    0.0000 </r>
       <r>   10.7663    0.0000 </r>
       <r>   10.8715    0.0000 </r>
      </set>
     </set>
    </set>
   </array>
  </eigenvalues>
  <separator name="orbital magnetization" >
   <v name="MAGDIPOLOUT">      0.00000000      0.00000000      0.00000000</v>
  </separator>
 </calculation>
 <structure name="finalpos" >
  <crystal>
   <varray name="basis" >
    <v>       5.14475510      -2.96862457       9.20587717 </v>
    <v>       0.00263847       5.93881230       9.20491499 </v>
    <v>      -5.14182233      -2.96997794       9.20381147 </v>
   </varray>
   <i name="volume">    843.47881204 </i>
   <varray name="rec_basis" >
    <v>       0.09721418      -0.05614168       0.03619354 </v>
    <v>      -0.00002204       0.11225693       0.03621187 </v>
    <v>      -0.09721396      -0.05611610       0.03623276 </v>
   </varray>
  </crystal>
  <varray name="positions" >
   <v>       0.13836510       0.13937513       0.13985430 </v>
   <v>       0.39147476       0.39003041       0.39083820 </v>
   <v>       0.14029332       0.14031372       0.64093324 </v>
   <v>       0.39172131       0.39092951       0.89062171 </v>
   <v>       0.14010799       0.63912175       0.13992589 </v>
   <v>       0.39000758       0.89022121       0.39049427 </v>
   <v>       0.14030037       0.63860745       0.63941441 </v>
   <v>       0.39070000       0.89124468       0.89014674 </v>
   <v>       0.63969665       0.14085531       0.13851869 </v>
   <v>       0.89086515       0.39195736       0.39128864 </v>
   <v>       0.64047844       0.13981163       0.63895361 </v>
   <v>       0.89105994       0.39184303       0.88999347 </v>
   <v>       0.63985003       0.64049095       0.14011472 </v>
   <v>       0.88950755       0.89022779       0.39156620 </v>
   <v>       0.64093702       0.64010865       0.64146705 </v>
   <v>       0.89102335       0.89081798       0.89133403 </v>
   <v>       0.99959295       0.00151201       0.99677080 </v>
   <v>       0.99939846       0.00007078       0.49761608 </v>
   <v>       0.25171904       0.24891397       0.74959565 </v>
   <v>       0.99752481       0.49794841       0.00088936 </v>
   <v>       0.00056166       0.49715395       0.50088759 </v>
   <v>       0.49987516       0.99740526       0.00092601 </v>
   <v>       0.49955862       0.50003840       0.99786264 </v>
   <v>       0.75096543       0.74945276       0.24987159 </v>
   <v>       0.49985274       0.50131128       0.49657011 </v>
   <v>       0.74943116       0.75096878       0.74803259 </v>
   <v>       0.05684602       0.18048536       0.36073145 </v>
   <v>       0.36067087       0.05674550       0.18068689 </v>
   <v>       0.17993589       0.36051351       0.05701317 </v>
   <v>       0.43095024       0.30632364       0.11020703 </v>
   <v>       0.10945290       0.43137322       0.30625495 </v>
   <v>       0.30677412       0.11048535       0.43075546 </v>
   <v>       0.05590297       0.18085700       0.86049979 </v>
   <v>       0.35952105       0.05693991       0.68134387 </v>
   <v>       0.18094290       0.36082295       0.55607657 </v>
   <v>       0.43113182       0.30567797       0.61121021 </v>
   <v>       0.11084407       0.43007020       0.80588587 </v>
   <v>       0.30565773       0.11091961       0.93126286 </v>
   <v>       0.05664534       0.68005613       0.36093623 </v>
   <v>       0.36071369       0.55681101       0.18007654 </v>
   <v>       0.17967583       0.86103108       0.05689223 </v>
   <v>       0.43025579       0.80728194       0.10991861 </v>
   <v>       0.11028999       0.93051178       0.30703151 </v>
   <v>       0.30690337       0.60973308       0.43068232 </v>
   <v>       0.05706748       0.67907359       0.86084677 </v>
   <v>       0.36094151       0.55685450       0.67965423 </v>
   <v>       0.17974487       0.86085916       0.55686105 </v>
   <v>       0.43032279       0.80702455       0.60997337 </v>
   <v>       0.10985582       0.93007419       0.80718577 </v>
   <v>       0.30649222       0.60981727       0.93083490 </v>
   <v>       0.55732112       0.18015338       0.36060859 </v>
   <v>       0.86110815       0.05650183       0.17992043 </v>
   <v>       0.68020999       0.36086571       0.05666503 </v>
   <v>       0.93023802       0.30701088       0.10981565 </v>
   <v>       0.61026694       0.43066212       0.30693459 </v>
   <v>       0.80719686       0.10988191       0.43064565 </v>
   <v>       0.55685221       0.17943172       0.86096279 </v>
   <v>       0.86071166       0.05662908       0.67979557 </v>
   <v>       0.67982234       0.36097911       0.55686083 </v>
   <v>       0.93056799       0.30681197       0.60990011 </v>
   <v>       0.61019784       0.43030307       0.80691083 </v>
   <v>       0.80678428       0.10942471       0.93076524 </v>
   <v>       0.55606113       0.68114642       0.36019605 </v>
   <v>       0.86020319       0.55688618       0.17977075 </v>
   <v>       0.68036646       0.86060096       0.05627414 </v>
   <v>       0.93068276       0.80539908       0.11110317 </v>
   <v>       0.61080859       0.93100230       0.30602108 </v>
   <v>       0.80549406       0.61091233       0.43045791 </v>
   <v>       0.55607527       0.68010642       0.86102421 </v>
   <v>       0.86078666       0.55626999       0.67984492 </v>
   <v>       0.68025233       0.85981173       0.55713679 </v>
   <v>       0.93071464       0.80589890       0.61097452 </v>
   <v>       0.61037852       0.93064948       0.80623430 </v>
   <v>       0.80637145       0.61100798       0.92940388 </v>
   <v>       0.24865593       0.24990037       0.24765610 </v>
   <v>       0.24808564       0.74810248       0.24846607 </v>
   <v>       0.24753554       0.74750217       0.74932964 </v>
   <v>       0.74731654       0.24778060       0.24919422 </v>
   <v>       0.49682980       0.99769145       0.50015533 </v>
   <v>       0.74835142       0.24828902       0.74831680 </v>
  </varray>
 </structure>
</modeling>
