Li(NbTa)O_3                             
           1
     5.143577   -2.968052    9.209351
     0.002470    5.937689    9.208490
    -5.140974   -2.969401    9.207470
   Li   Nb   O    Ta
  16  10  48   6
Li(NbTa)O_3                             
           1
     5.143577   -2.968052    9.209351
     0.002470    5.937689    9.208490
    -5.140974   -2.969401    9.207470
   Li   Nb   O    Ta
  16  10  48   6
Direct configuration=     1
   0.13834752  0.13936271  0.13984335
   0.39146324  0.38999630  0.39085144
   0.14028321  0.14032414  0.64092124
   0.39173469  0.39088444  0.89059988
   0.14005761  0.63914415  0.13990376
   0.38998511  0.89022976  0.39046082
   0.14027342  0.63856692  0.63942290
   0.39066873  0.89122478  0.89017412
   0.63968950  0.14081636  0.13851063
   0.89081879  0.39199278  0.39127564
   0.64044608  0.13979598  0.63895884
   0.89104424  0.39188824  0.88993991
   0.63987068  0.64050964  0.14005521
   0.88952244  0.89019616  0.39154151
   0.64095434  0.64008558  0.64144699
   0.89103108  0.89076076  0.89134632
   0.99959237  0.00150112  0.99675172
   0.99938324  0.00003493  0.49763958
   0.25168038  0.24891337  0.74959517
   0.99749990  0.49794372  0.00086033
   0.00052440  0.49715140  0.50088067
   0.49988249  0.99738472  0.00090131
   0.49954620  0.50003968  0.99785757
   0.75097315  0.74942469  0.24984287
   0.49985523  0.50129758  0.49655071
   0.74940214  0.75095878  0.74802348
   0.05623360  0.18120304  0.36059596
   0.36055215  0.05618073  0.18135900
   0.18067803  0.36043515  0.05635112
   0.43164615  0.30579781  0.11007695
   0.10933811  0.43208088  0.30572184
   0.30616879  0.11038237  0.43144631
   0.05540035  0.18155956  0.86034038
   0.35943918  0.05639020  0.68203455
   0.18159346  0.36067916  0.55556672
   0.43176800  0.30520898  0.61104129
   0.11066152  0.43074915  0.80539644
   0.30515946  0.11079423  0.93190663
   0.05604537  0.68076856  0.36081137
   0.36061507  0.55618152  0.18081868
   0.18040413  0.86090372  0.05629587
   0.43096027  0.80670950  0.10983535
   0.11018018  0.93120277  0.30647725
   0.30631393  0.60963452  0.43142758
   0.05642617  0.67983109  0.86072292
   0.36082901  0.55621291  0.68039936
   0.18050111  0.86073339  0.55625759
   0.43105925  0.80638098  0.60992686
   0.10974163  0.93076687  0.80662904
   0.30592914  0.60973059  0.93157562
   0.55668960  0.18089021  0.36049958
   0.86099568  0.05588109  0.18065345
   0.68094161  0.36072792  0.05606070
   0.93094987  0.30643726  0.10970186
   0.61015919  0.43137998  0.30635721
   0.80662739  0.10979363  0.43135599
   0.55625493  0.18016866  0.86082204
   0.86060460  0.05601788  0.68054061
   0.68056339  0.36084158  0.55626059
   0.93128773  0.30623948  0.60979445
   0.61008613  0.43101265  0.80636497
   0.80623116  0.10929440  0.93147945
   0.55554077  0.68183433  0.36007734
   0.86007458  0.55634829  0.18046819
   0.68107200  0.86046774  0.05575260
   0.93136114  0.80492582  0.11095065
   0.61067752  0.93165297  0.30547765
   0.80503784  0.61074302  0.43111591
   0.55556968  0.68082022  0.86090541
   0.86059508  0.55581627  0.68050717
   0.68097931  0.85972506  0.55655493
   0.93138973  0.80539064  0.61084254
   0.61024363  0.93134011  0.80571432
   0.80584636  0.61083297  0.93009391
   0.24862253  0.24992729  0.24762435
   0.24806756  0.74806531  0.24849505
   0.24752603  0.74745881  0.74934160
   0.74730972  0.24776208  0.24918815
   0.49682629  0.99767190  0.50015434
   0.74834988  0.24827406  0.74832874
Li(NbTa)O_3                             
           1
     5.143404   -2.967948    9.209990
     0.002473    5.937491    9.209130
    -5.140787   -2.969292    9.208102
   Li   Nb   O    Ta
  16  10  48   6
Direct configuration=     2
   0.13835102  0.13936405  0.13984426
   0.39146275  0.38999868  0.39085199
   0.14028435  0.14032454  0.64092249
   0.39173355  0.39088611  0.89060135
   0.14006000  0.63914473  0.13990565
   0.38998762  0.89022973  0.39046170
   0.14027476  0.63857015  0.63942372
   0.39067088  0.89122613  0.89017332
   0.63969071  0.14081772  0.13851256
   0.89082142  0.39199115  0.39127553
   0.64044756  0.13979779  0.63896065
   0.89104570  0.39188537  0.88994261
   0.63987100  0.64050968  0.14005891
   0.88952286  0.89019759  0.39154247
   0.64095471  0.64008726  0.64144723
   0.89103021  0.89076368  0.89134624
   0.99961622  0.00153369  0.99676187
   0.99940417  0.00006007  0.49765385
   0.25171256  0.24893420  0.74961662
   0.99751319  0.49796121  0.00089238
   0.00055149  0.49716184  0.50091301
   0.49991086  0.99739582  0.00092846
   0.49956949  0.50006769  0.99786888
   0.75100763  0.74944287  0.24986809
   0.49987810  0.50132751  0.49656128
   0.74942672  0.75098630  0.74804167
   0.05627679  0.18109214  0.36065141
   0.36060786  0.05622396  0.18124815
   0.18056814  0.36048617  0.05640076
   0.43151591  0.30581922  0.11015206
   0.10941390  0.43195001  0.30574508
   0.30621275  0.11043916  0.43133182
   0.05541919  0.18143274  0.86041626
   0.35950936  0.05641521  0.68190786
   0.18146876  0.36075188  0.55559064
   0.43164442  0.30523105  0.61111475
   0.11073150  0.43062760  0.80542439
   0.30518330  0.11086247  0.93178513
   0.05609184  0.68066233  0.36086464
   0.36066664  0.55622734  0.18071302
   0.18029731  0.86095834  0.05633764
   0.43083814  0.80673746  0.10990115
   0.11024787  0.93107945  0.30650588
   0.30634345  0.60970278  0.43130416
   0.05647257  0.67972716  0.86077346
   0.36088181  0.55625902  0.68029162
   0.18039061  0.86078793  0.55630009
   0.43094612  0.80642575  0.60998099
   0.10980935  0.93064536  0.80665585
   0.30595452  0.60979926  0.93144911
   0.55673336  0.18078048  0.36055334
   0.86104972  0.05592745  0.18054322
   0.68083515  0.36078186  0.05610418
   0.93083071  0.30646749  0.10976649
   0.61022748  0.43125602  0.30638539
   0.80665430  0.10985904  0.43123284
   0.55630023  0.18005948  0.86087783
   0.86065746  0.05606172  0.68043350
   0.68045527  0.36089830  0.55630404
   0.93116420  0.30626626  0.60986485
   0.61015638  0.43089057  0.80638844
   0.80625750  0.10936754  0.93135259
   0.55556288  0.68170873  0.36014892
   0.86014358  0.55637330  0.18034774
   0.68094546  0.86054133  0.05577478
   0.93123523  0.80494564  0.11102711
   0.61073438  0.93154223  0.30551888
   0.80505689  0.61082131  0.43098769
   0.55559076  0.68069613  0.86097632
   0.86066912  0.55583588  0.68038759
   0.68085356  0.85979266  0.55658456
   0.93126888  0.80541684  0.61091035
   0.61031161  0.93121925  0.80574067
   0.80587401  0.61090069  0.92997923
   0.24864444  0.24994802  0.24763852
   0.24808534  0.74808675  0.24850952
   0.24753919  0.74747743  0.74936293
   0.74732536  0.24777886  0.24920656
   0.49683734  0.99768661  0.50017967
   0.74836379  0.24829077  0.74834397
Li(NbTa)O_3                             
           1
     5.143220   -2.967792    9.210899
     0.002554    5.937200    9.210001
    -5.140495   -2.969167    9.208941
   Li   Nb   O    Ta
  16  10  48   6
Direct configuration=     3
   0.13835918  0.13936665  0.13984708
   0.39146392  0.39000414  0.39085047
   0.14028851  0.14032334  0.64092310
   0.39173121  0.39089105  0.89060504
   0.14006852  0.63914392  0.13991143
   0.38999351  0.89023107  0.39046547
   0.14028040  0.63857783  0.63942475
   0.39067547  0.89122987  0.89017077
   0.63969237  0.14082229  0.13851834
   0.89083028  0.39198372  0.39127725
   0.64045247  0.13980299  0.63896304
   0.89104862  0.39187691  0.88995182
   0.63986917  0.64050760  0.14006955
   0.88952289  0.89020207  0.39154407
   0.64095347  0.64009239  0.64144771
   0.89102930  0.89077312  0.89134399
   0.99965269  0.00157688  0.99679535
   0.99944495  0.00011236  0.49767435
   0.25176759  0.24896341  0.74965011
   0.99755630  0.49798466  0.00093909
   0.00060209  0.49718655  0.50094908
   0.49994237  0.99743107  0.00097916
   0.49960573  0.50009749  0.99790768
   0.75104518  0.74949217  0.24991493
   0.49991204  0.50136922  0.49659369
   0.74946654  0.75103292  0.74806661
   0.05639086  0.18084499  0.36075850
   0.36071093  0.05633674  0.18100739
   0.18031682  0.36058614  0.05653173
   0.43125296  0.30590780  0.11027174
   0.10953635  0.43169190  0.30583394
   0.30633899  0.11053730  0.43109233
   0.05549392  0.18117755  0.86054531
   0.35962377  0.05650863  0.68164854
   0.18121665  0.36087710  0.55567400
   0.43139692  0.30531018  0.61124223
   0.11085130  0.43038181  0.80551120
   0.30526377  0.11097719  0.93154293
   0.05621324  0.68042399  0.36096521
   0.36076919  0.55634914  0.18046470
   0.18006008  0.86106326  0.05645053
   0.43059195  0.80684027  0.11000595
   0.11035592  0.93083339  0.30660590
   0.30644460  0.60981678  0.43105005
   0.05659744  0.67948849  0.86087024
   0.36098214  0.55638064  0.68005113
   0.18014225  0.86089142  0.55641324
   0.43070106  0.80655306  0.61007188
   0.10992091  0.93040047  0.80675276
   0.30604597  0.60990890  0.93119341
   0.55685775  0.18054085  0.36065208
   0.86115179  0.05605555  0.18029306
   0.68059258  0.36088971  0.05621854
   0.93059258  0.30656901  0.10986871
   0.61033892  0.43100591  0.30648692
   0.80675223  0.10996167  0.43098871
   0.55641436  0.17981530  0.86098593
   0.86076357  0.05617499  0.68018771
   0.68021427  0.36100671  0.55641756
   0.93091180  0.30636502  0.60997993
   0.61026877  0.43064351  0.80647781
   0.80635541  0.10948622  0.93109562
   0.55564464  0.68145282  0.36026995
   0.86026127  0.55645872  0.18010022
   0.68068777  0.86066390  0.05585341
   0.93098238  0.80502272  0.11115526
   0.61084489  0.93129433  0.30563269
   0.80513043  0.61095331  0.43073659
   0.55566760  0.68044171  0.86109599
   0.86079695  0.55590594  0.68014729
   0.68060068  0.85990050  0.55668746
   0.93101942  0.80550363  0.61103033
   0.61042995  0.93096725  0.80583030
   0.80596259  0.61101972  0.92974237
   0.24868313  0.24996362  0.24767168
   0.24811174  0.74811580  0.24852597
   0.24757072  0.74751092  0.74938313
   0.74733945  0.24780333  0.24923505
   0.49685256  0.99771550  0.50020062
   0.74838226  0.24831701  0.74836478
Li(NbTa)O_3                             
           1
     5.143314   -2.967842    9.210627
     0.002569    5.937274    9.209711
    -5.140569   -2.969224    9.208655
   Li   Nb   O    Ta
  16  10  48   6
Direct configuration=     4
   0.13836054  0.13936752  0.13984814
   0.39146533  0.39000648  0.39084940
   0.14028979  0.14032225  0.64092352
   0.39173041  0.39089434  0.89060676
   0.14007241  0.63914259  0.13991328
   0.38999493  0.89023130  0.39046810
   0.14028238  0.63858089  0.63942466
   0.39067765  0.89123177  0.89016900
   0.63969284  0.14082532  0.13851932
   0.89083379  0.39198120  0.39127839
   0.64045496  0.13980428  0.63896268
   0.89104957  0.39187472  0.88995595
   0.63986822  0.64050575  0.14007335
   0.88952195  0.89020447  0.39154601
   0.64095259  0.64009431  0.64144903
   0.89102985  0.89077731  0.89134259
   0.99964983  0.00157030  0.99679825
   0.99944308  0.00011200  0.49767106
   0.25176296  0.24896075  0.74964786
   0.99755726  0.49798544  0.00093529
   0.00059771  0.49718922  0.50094349
   0.49993629  0.99743272  0.00097579
   0.49960468  0.50009286  0.99790712
   0.75103767  0.74949007  0.24991409
   0.49990785  0.50136428  0.49659731
   0.74946721  0.75102739  0.74806653
   0.05644104  0.18079237  0.36076442
   0.36071295  0.05638354  0.18096206
   0.18026692  0.36058437  0.05658720
   0.43121230  0.30595525  0.11026835
   0.10953665  0.43164585  0.30587954
   0.30639126  0.11053580  0.43104537
   0.05553439  0.18112993  0.86055068
   0.35961938  0.05655690  0.68160499
   0.18117974  0.36087766  0.55571686
   0.43136000  0.30535302  0.61124357
   0.11086054  0.43033461  0.80554922
   0.30530543  0.11097655  0.93150395
   0.05626430  0.68037400  0.36096758
   0.36077281  0.55640009  0.18040896
   0.18000464  0.86107046  0.05649773
   0.43054248  0.80689030  0.11000456
   0.11035633  0.93078707  0.30665484
   0.30649625  0.60981572  0.43099981
   0.05665153  0.67943353  0.86087362
   0.36098961  0.55643160  0.67999364
   0.18008740  0.86089769  0.55645975
   0.43064908  0.80660545  0.61006912
   0.10992109  0.93035460  0.80680210
   0.30609369  0.60990712  0.93114651
   0.55690990  0.18048969  0.36065444
   0.86115737  0.05610473  0.18023699
   0.68053819  0.36089746  0.05626572
   0.93054046  0.30661513  0.10987323
   0.61033780  0.43095869  0.30653805
   0.80680328  0.10996088  0.43094069
   0.55646405  0.17976225  0.86099195
   0.86076831  0.05622406  0.68013187
   0.68016034  0.36101251  0.55646488
   0.93086008  0.30641124  0.60998324
   0.61026857  0.43059656  0.80652553
   0.80640479  0.10948683  0.93104894
   0.55568557  0.68140637  0.36027381
   0.86026229  0.55650370  0.18005565
   0.68064230  0.86066594  0.05589655
   0.93094462  0.80506648  0.11115378
   0.61084587  0.93125435  0.30567769
   0.80516932  0.61095491  0.43069808
   0.55570562  0.68038780  0.86110337
   0.86080538  0.55594179  0.68010257
   0.68054825  0.85990199  0.55673483
   0.93097995  0.80554999  0.61102806
   0.61043084  0.93092588  0.80587394
   0.80600339  0.61102685  0.92969568
   0.24867985  0.24995706  0.24767184
   0.24810993  0.74811629  0.24852132
   0.24756713  0.74751095  0.74938027
   0.74733615  0.24780262  0.24923489
   0.49685340  0.99771435  0.50019536
   0.74838061  0.24831769  0.74835979
Li(NbTa)O_3                             
           1
     5.143676   -2.967992    9.209646
     0.002650    5.937586    9.208690
    -5.140803   -2.969392    9.207597
   Li   Nb   O    Ta
  16  10  48   6
Direct configuration=     5
   0.13836230  0.13936893  0.13985110
   0.39146914  0.39001270  0.39084619
   0.14029192  0.14031932  0.64092568
   0.39172948  0.39090357  0.89061067
   0.14008355  0.63913820  0.13991674
   0.38999820  0.89023030  0.39047553
   0.14028841  0.63858858  0.63942230
   0.39068320  0.89123587  0.89016406
   0.63969429  0.14083412  0.13851976
   0.89084271  0.39197369  0.39128220
   0.64046163  0.13980754  0.63896016
   0.89105209  0.39186674  0.88996730
   0.63986337  0.64050108  0.14008456
   0.88951914  0.89021203  0.39155049
   0.64094824  0.64009874  0.64145401
   0.89103046  0.89078964  0.89133893
   0.99963653  0.00155187  0.99679654
   0.99943269  0.00010580  0.49765742
   0.25175475  0.24894217  0.74963261
   0.99755926  0.49797555  0.00092266
   0.00059426  0.49718320  0.50092254
   0.49991286  0.99743522  0.00096340
   0.49959239  0.50007030  0.99790518
   0.75101530  0.74948846  0.24990211
   0.49989163  0.50134313  0.49660035
   0.74945950  0.75101742  0.74805596
   0.05656879  0.18069019  0.36075826
   0.36070633  0.05650054  0.18086253
   0.18015102  0.36057395  0.05671977
   0.43111821  0.30606839  0.11025626
   0.10951967  0.43155295  0.30599504
   0.30651515  0.11052517  0.43094123
   0.05564579  0.18103876  0.86054280
   0.35959723  0.05667757  0.68151303
   0.18109579  0.36086991  0.55582660
   0.43127809  0.30545117  0.61124359
   0.11086323  0.43024134  0.80565066
   0.30541227  0.11096401  0.93142081
   0.05637817  0.68026143  0.36097064
   0.36076811  0.55652403  0.18029387
   0.17988940  0.86107199  0.05661590
   0.43044466  0.80701873  0.10998196
   0.11034534  0.93069160  0.30677339
   0.30662186  0.60979961  0.43088864
   0.05677517  0.67930522  0.86087833
   0.36098716  0.55656128  0.67987561
   0.17996905  0.86089847  0.55657856
   0.43053810  0.80673541  0.61004913
   0.10991205  0.93025431  0.80692174
   0.30621218  0.60989215  0.93103814
   0.55703775  0.18037320  0.36065063
   0.86115208  0.05622683  0.18012420
   0.68042551  0.36089939  0.05638508
   0.93043860  0.30673829  0.10986279
   0.61032506  0.43085581  0.30666373
   0.80692871  0.10994663  0.43083838
   0.55657963  0.17964105  0.86099999
   0.86076544  0.05634353  0.68001277
   0.68004509  0.36101282  0.55658339
   0.93076210  0.30653717  0.60996429
   0.61025712  0.43049604  0.80664398
   0.80652254  0.10947683  0.93094955
   0.55579761  0.68132286  0.36025640
   0.86025500  0.55661630  0.17995849
   0.68054792  0.86065395  0.05600967
   0.93085075  0.80516388  0.11115186
   0.61084379  0.93116381  0.30578168
   0.80526719  0.61094935  0.43061439
   0.55581577  0.68028920  0.86109003
   0.86081177  0.55603779  0.68000896
   0.68044478  0.85988245  0.55686142
   0.93088746  0.80565431  0.61102263
   0.61042643  0.93083013  0.80598263
   0.80610876  0.61103222  0.92959620
   0.24867808  0.24993514  0.24767097
   0.24810479  0.74811218  0.24850646
   0.24756076  0.74751081  0.74936992
   0.74732155  0.24779642  0.24923268
   0.49684202  0.99771472  0.50018382
   0.74837106  0.24831254  0.74835251
Li(NbTa)O_3                             
           1
     5.144112   -2.968228    9.208223
     0.002668    5.938041    9.207251
    -5.141180   -2.969617    9.206146
   Li   Nb   O    Ta
  16  10  48   6
Direct configuration=     6
   0.13836285  0.13937127  0.13985412
   0.39147218  0.39002047  0.39084311
   0.14029253  0.14031682  0.64092907
   0.39172685  0.39091479  0.89061565
   0.14009493  0.63913203  0.13992101
   0.39000218  0.89022709  0.39048422
   0.14029403  0.63859720  0.63941957
   0.39069045  0.89123966  0.89015803
   0.63969595  0.14084361  0.13851969
   0.89085257  0.39196629  0.39128579
   0.64046934  0.13980990  0.63895746
   0.89105526  0.39185768  0.88997988
   0.63985802  0.64049630  0.14009746
   0.88951504  0.89021977  0.39155706
   0.64094359  0.64010351  0.64145996
   0.89102920  0.89080272  0.89133608
   0.99961759  0.00153371  0.99678716
   0.99941924  0.00009275  0.49763747
   0.25173544  0.24892712  0.74961686
   0.99754564  0.49796180  0.00091032
   0.00057916  0.49717171  0.50090467
   0.49989279  0.99742190  0.00094787
   0.49957918  0.50005357  0.99788888
   0.75098920  0.74947188  0.24988938
   0.49987439  0.50132878  0.49658948
   0.74944828  0.75099582  0.74804709
   0.05670480  0.18058936  0.36074548
   0.36068982  0.05662372  0.18077267
   0.18004462  0.36054942  0.05686169
   0.43102984  0.30619006  0.11023778
   0.10949572  0.43146091  0.30611746
   0.30664632  0.11050678  0.43084342
   0.05576684  0.18094922  0.86052661
   0.35956506  0.05680710  0.68142350
   0.18101925  0.36085060  0.55594680
   0.43120261  0.30555924  0.61123257
   0.11085960  0.43015254  0.80575872
   0.30552957  0.11094377  0.93134170
   0.05650619  0.68015768  0.36095830
   0.36074948  0.55665997  0.18018449
   0.17978126  0.86105943  0.05674577
   0.43034581  0.80715011  0.10995511
   0.11032395  0.93059930  0.30689875
   0.30675659  0.60977210  0.43078291
   0.05691500  0.67918536  0.86086768
   0.36097294  0.55669895  0.67976460
   0.17985540  0.86088609  0.55671126
   0.43042803  0.80687730  0.61001631
   0.10989139  0.93016069  0.80704897
   0.30634367  0.60986377  0.93093384
   0.55717330  0.18025949  0.36063643
   0.86113620  0.05635825  0.18001798
   0.68031657  0.36088921  0.05651707
   0.93033330  0.30686917  0.10984705
   0.61030160  0.43075675  0.30679658
   0.80705894  0.10992220  0.43073898
   0.55670940  0.17953361  0.86098955
   0.86074711  0.05647650  0.67990313
   0.67993285  0.36100088  0.55671512
   0.93066192  0.30666861  0.60993988
   0.61023618  0.43039892  0.80676996
   0.80664814  0.10945671  0.93085465
   0.55592044  0.68123439  0.36023129
   0.86023694  0.55674068  0.17986408
   0.68045717  0.86063349  0.05613225
   0.93076684  0.80527335  0.11113604
   0.61082911  0.93108374  0.30589655
   0.80537545  0.61093484  0.43053364
   0.55593420  0.68019298  0.86106793
   0.86080701  0.55614438  0.67992163
   0.68034375  0.85985571  0.55699348
   0.93080137  0.80576846  0.61100540
   0.61041015  0.93073832  0.80610155
   0.80622670  0.61103082  0.92949797
   0.24866551  0.24991786  0.24766507
   0.24809771  0.74811063  0.24848678
   0.24754944  0.74750745  0.74935397
   0.74731820  0.24779151  0.24921790
   0.49683522  0.99770242  0.50017229
   0.74836491  0.24830507  0.74833654
Li(NbTa)O_3                             
           1
     5.144493   -2.968460    9.206856
     0.002656    5.938485    9.205885
    -5.141555   -2.969830    9.204781
   Li   Nb   O    Ta
  16  10  48   6
Direct configuration=     7
   0.13836390  0.13937344  0.13985516
   0.39147405  0.39002660  0.39084056
   0.14029311  0.14031488  0.64093170
   0.39172401  0.39092379  0.89061966
   0.14010345  0.63912618  0.13992431
   0.39000539  0.89022398  0.39049085
   0.14029820  0.63860377  0.63941676
   0.39069640  0.89124280  0.89015184
   0.63969667  0.14085099  0.13851939
   0.89086043  0.39196059  0.39128812
   0.64047511  0.13981135  0.63895527
   0.89105805  0.39184939  0.88998899
   0.63985323  0.64049287  0.14010811
   0.88951086  0.89022522  0.39156277
   0.64093961  0.64010707  0.64146461
   0.89102652  0.89081269  0.89133453
   0.99960154  0.00151960  0.99677739
   0.99940686  0.00007941  0.49762317
   0.25172412  0.24891732  0.74960264
   0.99753339  0.49795164  0.00089766
   0.00056856  0.49716060  0.50089225
   0.49987950  0.99741182  0.00093403
   0.49956642  0.50004213  0.99787354
   0.75097127  0.74946040  0.24987776
   0.49985980  0.50131675  0.49657909
   0.74943796  0.75097898  0.74803730
   0.05679953  0.18052132  0.36073469
   0.36067666  0.05670757  0.18071421
   0.17997267  0.36052809  0.05696058
   0.43097433  0.30627873  0.11021865
   0.10947029  0.43140223  0.30620663
   0.30673372  0.11049258  0.43078233
   0.05585541  0.18088832  0.86051033
   0.35953691  0.05689651  0.68136810
   0.18096766  0.36083296  0.55603280
   0.43115353  0.30563681  0.61121989
   0.11085138  0.43009528  0.80584184
   0.30561401  0.11092816  0.93128852
   0.05659824  0.68008885  0.36094525
   0.36072929  0.55675885  0.18011119
   0.17970957  0.86104367  0.05684135
   0.43028244  0.80723972  0.10993280
   0.11030367  0.93053927  0.30698697
   0.30685387  0.60974782  0.43071339
   0.05701485  0.67910765  0.86085563
   0.36095609  0.55680001  0.67968889
   0.17977953  0.86087102  0.55680948
   0.43035547  0.80697695  0.60998920
   0.10986998  0.93010142  0.80714034
   0.30644083  0.60983569  0.93086590
   0.55727182  0.18018592  0.36061985
   0.86112013  0.05645190  0.17995144
   0.68024437  0.36087552  0.05661375
   0.93026673  0.30696279  0.10982980
   0.61028065  0.43069226  0.30688883
   0.80715152  0.10989858  0.43067350
   0.55680312  0.17946362  0.86097484
   0.86072619  0.05657459  0.67983121
   0.67985797  0.36098833  0.55681038
   0.93059694  0.30676261  0.60991697
   0.61021402  0.43033336  0.80686266
   0.80673730  0.10943784  0.93079275
   0.55601214  0.68117512  0.36020902
   0.86021839  0.55683352  0.17980081
   0.68039675  0.86061406  0.05622388
   0.93070942  0.80535551  0.11111714
   0.61081591  0.93102833  0.30597974
   0.80545314  0.61091994  0.43048273
   0.55602380  0.68013311  0.86104325
   0.86079752  0.55622320  0.67986772
   0.68027996  0.85982992  0.55708805
   0.93074289  0.80585329  0.61098765
   0.61039179  0.93067843  0.80618844
   0.80631922  0.61102001  0.92943324
   0.24865840  0.24990507  0.24765951
   0.24809047  0.74810693  0.24847306
   0.24754181  0.74750478  0.74933772
   0.74731636  0.24778532  0.24920388
   0.49683100  0.99769455  0.50016197
   0.74835715  0.24829576  0.74832418
Li(NbTa)O_3                             
           1
     5.144755   -2.968625    9.205877
     0.002638    5.938812    9.204915
    -5.141822   -2.969978    9.203811
   Li   Nb   O    Ta
  16  10  48   6
Direct configuration=     8
   0.13836510  0.13937513  0.13985430
   0.39147476  0.39003041  0.39083820
   0.14029332  0.14031372  0.64093324
   0.39172131  0.39092951  0.89062171
   0.14010799  0.63912175  0.13992589
   0.39000758  0.89022121  0.39049427
   0.14030037  0.63860745  0.63941441
   0.39070000  0.89124468  0.89014674
   0.63969665  0.14085531  0.13851869
   0.89086515  0.39195736  0.39128864
   0.64047844  0.13981163  0.63895361
   0.89105994  0.39184303  0.88999347
   0.63985003  0.64049095  0.14011472
   0.88950755  0.89022779  0.39156620
   0.64093702  0.64010865  0.64146705
   0.89102335  0.89081798  0.89133403
   0.99959295  0.00151201  0.99677080
   0.99939846  0.00007078  0.49761608
   0.25171904  0.24891397  0.74959565
   0.99752481  0.49794841  0.00088936
   0.00056166  0.49715395  0.50088759
   0.49987516  0.99740526  0.00092601
   0.49955862  0.50003840  0.99786264
   0.75096543  0.74945276  0.24987159
   0.49985274  0.50131128  0.49657011
   0.74943116  0.75096878  0.74803259
   0.05684602  0.18048536  0.36073145
   0.36067087  0.05674550  0.18068689
   0.17993589  0.36051351  0.05701317
   0.43095024  0.30632364  0.11020703
   0.10945290  0.43137322  0.30625495
   0.30677412  0.11048535  0.43075546
   0.05590297  0.18085700  0.86049979
   0.35952105  0.05693991  0.68134387
   0.18094290  0.36082295  0.55607657
   0.43113182  0.30567797  0.61121021
   0.11084407  0.43007020  0.80588587
   0.30565773  0.11091961  0.93126286
   0.05664534  0.68005613  0.36093623
   0.36071369  0.55681101  0.18007654
   0.17967583  0.86103108  0.05689223
   0.43025579  0.80728194  0.10991861
   0.11028999  0.93051178  0.30703151
   0.30690337  0.60973308  0.43068232
   0.05706748  0.67907359  0.86084677
   0.36094151  0.55685450  0.67965423
   0.17974487  0.86085916  0.55686105
   0.43032279  0.80702455  0.60997337
   0.10985582  0.93007419  0.80718577
   0.30649222  0.60981727  0.93083490
   0.55732112  0.18015338  0.36060859
   0.86110815  0.05650183  0.17992043
   0.68020999  0.36086571  0.05666503
   0.93023802  0.30701088  0.10981565
   0.61026694  0.43066212  0.30693459
   0.80719686  0.10988191  0.43064565
   0.55685221  0.17943172  0.86096279
   0.86071166  0.05662908  0.67979557
   0.67982234  0.36097911  0.55686083
   0.93056799  0.30681197  0.60990011
   0.61019784  0.43030307  0.80691083
   0.80678428  0.10942471  0.93076524
   0.55606113  0.68114642  0.36019605
   0.86020319  0.55688618  0.17977075
   0.68036646  0.86060096  0.05627414
   0.93068276  0.80539908  0.11110317
   0.61080859  0.93100230  0.30602108
   0.80549406  0.61091233  0.43045791
   0.55607527  0.68010642  0.86102421
   0.86078666  0.55626999  0.67984492
   0.68025233  0.85981173  0.55713679
   0.93071464  0.80589890  0.61097452
   0.61037852  0.93064948  0.80623430
   0.80637145  0.61100798  0.92940388
   0.24865593  0.24990037  0.24765610
   0.24808564  0.74810248  0.24846607
   0.24753554  0.74750217  0.74932964
   0.74731654  0.24778060  0.24919422
   0.49682980  0.99769145  0.50015533
   0.74835142  0.24828902  0.74831680
