 vasp.5.4.4.18Apr17-6-g9f103f2a35 (build Mar 05 2020 17:21:05) complex          
  
 executed on Linux justhpc1_p2018 date 2024.04.10  19:41:16
 running on   72 total cores
 distrk:  each k-point on   72 cores,    1 groups
 distr:  one band on NCORES_PER_BAND=   1 cores,   72 groups


--------------------------------------------------------------------------------------------------------


 INCAR:
 POTCAR:    PAW_PBE Li 17Jan2003                  
 POTCAR:    PAW_PBE Nb_sv 25May2007               
 POTCAR:    PAW_PBE O 08Apr2002                   
 POTCAR:    PAW_PBE Ta 17Jan2003                  

 ----------------------------------------------------------------------------- 
|                                                                             |
|           W    W    AA    RRRRR   N    N  II  N    N   GGGG   !!!           |
|           W    W   A  A   R    R  NN   N  II  NN   N  G    G  !!!           |
|           W    W  A    A  R    R  N N  N  II  N N  N  G       !!!           |
|           W WW W  AAAAAA  RRRRR   N  N N  II  N  N N  G  GGG   !            |
|           WW  WW  A    A  R   R   N   NN  II  N   NN  G    G                |
|           W    W  A    A  R    R  N    N  II  N    N   GGGG   !!!           |
|                                                                             |
|      For optimal performance we recommend to set                            |
|        NCORE= 4 - approx SQRT( number of cores)                             |
|      NCORE specifies how many cores store one orbital (NPAR=cpu/NCORE).     |
|      This setting can  greatly improve the performance of VASP for DFT.     |
|      The default,   NCORE=1            might be grossly inefficient         |
|      on modern multi-core architectures or massively parallel machines.     |
|      Do your own testing !!!!                                               |
|      Unfortunately you need to use the default for GW and RPA calculations. |
|      (for HF NCORE is supported but not extensively tested yet)             |
|                                                                             |
 ----------------------------------------------------------------------------- 

 POTCAR:    PAW_PBE Li 17Jan2003                  
  local pseudopotential read in
  partial core-charges read in
  partial kinetic energy density read in
  atomic valenz-charges read in
  non local Contribution for L=           0  read in
    real space projection operators read in
  non local Contribution for L=           0  read in
    real space projection operators read in
  non local Contribution for L=           1  read in
    real space projection operators read in
    PAW grid and wavefunctions read in
 
   number of l-projection  operators is LMAX  =           3
   number of lm-projection operators is LMMAX =           5
 
 POTCAR:    PAW_PBE Nb_sv 25May2007               
  local pseudopotential read in
  partial core-charges read in
  partial kinetic energy density read in
  atomic valenz-charges read in
  non local Contribution for L=           0  read in
    real space projection operators read in
  non local Contribution for L=           0  read in
    real space projection operators read in
  non local Contribution for L=           1  read in
    real space projection operators read in
  non local Contribution for L=           1  read in
    real space projection operators read in
  non local Contribution for L=           2  read in
    real space projection operators read in
  non local Contribution for L=           2  read in
    real space projection operators read in
    PAW grid and wavefunctions read in
 
   number of l-projection  operators is LMAX  =           6
   number of lm-projection operators is LMMAX =          18
 
 POTCAR:    PAW_PBE O 08Apr2002                   
  local pseudopotential read in
  partial core-charges read in
  partial kinetic energy density read in
  kinetic energy density of atom read in
  atomic valenz-charges read in
  non local Contribution for L=           0  read in
    real space projection operators read in
  non local Contribution for L=           0  read in
    real space projection operators read in
  non local Contribution for L=           1  read in
    real space projection operators read in
  non local Contribution for L=           1  read in
    real space projection operators read in
    PAW grid and wavefunctions read in
 
   number of l-projection  operators is LMAX  =           4
   number of lm-projection operators is LMMAX =           8
 
 POTCAR:    PAW_PBE Ta 17Jan2003                  
  local pseudopotential read in
  partial core-charges read in
  partial kinetic energy density read in
  atomic valenz-charges read in
  non local Contribution for L=           2  read in
    real space projection operators read in
  non local Contribution for L=           2  read in
    real space projection operators read in
  non local Contribution for L=           0  read in
    real space projection operators read in
  non local Contribution for L=           0  read in
    real space projection operators read in
  non local Contribution for L=           1  read in
    real space projection operators read in
  non local Contribution for L=           1  read in
    real space projection operators read in
    PAW grid and wavefunctions read in
 
   number of l-projection  operators is LMAX  =           6
   number of lm-projection operators is LMMAX =          18
 
 Optimization of the real space projectors (new method)

 maximal supplied QI-value         = 18.33
 optimisation between [QCUT,QGAM] = [ 11.00, 22.18] = [ 33.87,137.76] Ry 
 Optimized for a Real-space Cutoff    1.27 Angstroem

   l    n(q)    QCUT    max X(q) W(low)/X(q) W(high)/X(q)  e(spline) 
   0      8    10.998    33.825    0.29E-04    0.16E-03    0.54E-07
   0      8    10.998     8.944    0.19E-04    0.12E-03    0.42E-07
   1      8    10.998     4.214    0.16E-03    0.32E-04    0.49E-07
 Optimization of the real space projectors (new method)

 maximal supplied QI-value         = 15.68
 optimisation between [QCUT,QGAM] = [ 11.14, 22.27] = [ 34.73,138.91] Ry 
 Optimized for a Real-space Cutoff    1.75 Angstroem

   l    n(q)    QCUT    max X(q) W(low)/X(q) W(high)/X(q)  e(spline) 
   0     12    11.136    10.201    0.25E-04    0.67E-06    0.52E-07
   0     12    11.136     8.174    0.39E-04    0.20E-05    0.97E-07
   1     11    11.136     3.488    0.15E-05    0.92E-05    0.13E-06
   1     11    11.136     4.917    0.87E-05    0.65E-04    0.82E-06
   2     11    11.136   153.744    0.20E-03    0.19E-03    0.13E-05
   2     11    11.136   126.342    0.20E-03    0.19E-03    0.13E-05
 Optimization of the real space projectors (new method)

 maximal supplied QI-value         = 24.76
 optimisation between [QCUT,QGAM] = [ 11.14, 22.28] = [ 34.75,139.00] Ry 
 Optimized for a Real-space Cutoff    1.19 Angstroem

   l    n(q)    QCUT    max X(q) W(low)/X(q) W(high)/X(q)  e(spline) 
   0      8    11.140    20.381    0.23E-03    0.52E-03    0.22E-06
   0      8    11.140    15.268    0.24E-03    0.55E-03    0.24E-06
   1      7    11.140     5.964    0.11E-03    0.44E-03    0.26E-06
   1      7    11.140     5.382    0.84E-04    0.37E-03    0.23E-06
 Optimization of the real space projectors (new method)

 maximal supplied QI-value         = 12.85
 optimisation between [QCUT,QGAM] = [ 11.05, 22.23] = [ 34.20,138.39] Ry 
 Optimized for a Real-space Cutoff    1.65 Angstroem

   l    n(q)    QCUT    max X(q) W(low)/X(q) W(high)/X(q)  e(spline) 
   2     10    11.051    62.315    0.21E-03    0.15E-03    0.40E-06
   2     10    11.051    52.185    0.21E-03    0.15E-03    0.40E-06
   0     11    11.051   103.837    0.25E-04    0.82E-06    0.35E-06
   0     11    11.051    59.728    0.19E-04    0.76E-06    0.31E-06
   1     11    11.051    13.958    0.72E-04    0.92E-04    0.65E-06
   1     11    11.051     8.441    0.56E-04    0.61E-04    0.46E-06

 ----------------------------------------------------------------------------- 
|                                                                             |
|  ADVICE TO THIS USER RUNNING 'VASP/VAMP'   (HEAR YOUR MASTER'S VOICE ...):  |
|                                                                             |
|      You enforced a specific xc-type in the INCAR file,                     |
|      a different type was found on the POTCAR file                          |
|          I HOPE YOU KNOW, WHAT YOU ARE  DOING                               |
|                                                                             |
 ----------------------------------------------------------------------------- 

  PAW_PBE Li 17Jan2003                  :
 energy of atom  1       EATOM=   -5.3001
 kinetic energy error for atom=    0.0000 (will be added to EATOM!!)
  PAW_PBE Nb_sv 25May2007               :
 energy of atom  2       EATOM=-1555.1913
 kinetic energy error for atom=    0.0086 (will be added to EATOM!!)
  PAW_PBE O 08Apr2002                   :
 energy of atom  3       EATOM= -432.3788
 kinetic energy error for atom=    0.0273 (will be added to EATOM!!)
  PAW_PBE Ta 17Jan2003                  :
 energy of atom  4       EATOM= -130.6506
 kinetic energy error for atom=    0.0015 (will be added to EATOM!!)
 
 
 POSCAR: Li Nb  O Ta + -5 %                      
  positions in direct lattice
  velocities in cartesian coordinates
 exchange correlation table for  LEXCH =       14
   RHO(1)=    0.500       N(1)  =     2000
   RHO(2)=  100.500       N(2)  =     4000
 


--------------------------------------------------------------------------------------------------------


 ion  position               nearest neighbor table
   1  0.138  0.139  0.140-  38 1.99  43 1.99  54 1.99  27 2.24  29 2.24  28 2.25  75 2.97  18 2.98
                            20 2.99  22 3.01  78 3.31  76 3.31
   2  0.391  0.390  0.391-  51 2.00  35 2.01  40 2.02  55 2.21  44 2.21  36 2.22  25 2.94  78 2.97
                            76 2.99  19 2.99  79 3.32
   3  0.140  0.140  0.641-  32 2.01  60 2.01  49 2.01  33 2.21  34 2.21  35 2.22  17 2.97  19 2.97
                            21 2.98  79 2.98  80 3.32  75 3.33  77 3.33
   4  0.392  0.391  0.891-  57 2.01  46 2.02  29 2.02  61 2.20  50 2.20  30 2.21  23 2.93  80 2.98
                            77 2.98  75 2.98
   5  0.140  0.639  0.140-  31 1.99  50 2.00  66 2.00  40 2.23  39 2.23  41 2.24  76 2.94  23 3.00
                            21 3.01  17 3.02  75 3.29  77 3.31
   6  0.390  0.890  0.390-  63 2.00  28 2.00  47 2.01  48 2.22  32 2.22  67 2.23  79 2.93  77 3.00
                            75 3.00  24 3.01
   7  0.140  0.639  0.639-  44 1.99  37 1.99  72 2.00  46 2.23  45 2.24  47 2.24  77 2.95  25 3.00
                            18 3.01  20 3.01  76 3.31
   8  0.391  0.891  0.890-  34 2.00  69 2.01  41 2.02  73 2.21  42 2.21  38 2.22  22 2.95  19 2.98
                            76 2.99  26 2.99  79 3.31
   9  0.640  0.141  0.139-  30 1.99  62 1.99  67 2.00  53 2.23  52 2.24  51 2.24  78 2.94  23 3.00
                            17 3.00  79 3.02  80 3.30  75 3.31
  10  0.891  0.392  0.391-  59 2.02  64 2.02  27 2.02  68 2.20  31 2.20  60 2.20  21 2.93  24 2.98
                            80 2.98  75 2.99
  11  0.640  0.140  0.639-  56 1.99  36 1.99  73 2.00  58 2.23  59 2.23  57 2.24  80 2.94  18 2.99
                            25 3.01  22 3.02  78 3.30
  12  0.891  0.392  0.890-  70 2.01  33 2.01  53 2.02  74 2.20  37 2.20  54 2.21  20 2.92  26 3.00
                            78 3.00  19 3.01
  13  0.640  0.641  0.140-  42 2.00  55 2.01  74 2.01  64 2.22  65 2.22  63 2.22  25 2.97  22 2.98
                            24 2.98  20 2.98  76 3.32  78 3.32
  14  0.890  0.890  0.392-  71 2.00  39 2.01  52 2.01  56 2.21  72 2.22  43 2.23  18 2.94  26 2.97
                            78 2.99  76 2.99  79 3.33
  15  0.641  0.640  0.641-  61 2.01  68 2.01  48 2.02  70 2.21  71 2.21  69 2.21  26 2.94  23 2.97
                            79 2.99  21 3.00  80 3.32  77 3.33
  16  0.891  0.891  0.891-  65 2.01  58 2.02  45 2.02  62 2.20  49 2.20  66 2.21  17 2.93  77 2.98
                            80 2.99  24 2.99
  17  1.000  0.002  0.997-  33 1.84  52 1.87  41 1.87  49 2.04  62 2.05  66 2.08  16 2.93   3 2.97
                             9 3.00   5 3.02
  18  0.999  0.000  0.498-  27 1.86  47 1.87  58 1.87  43 2.04  56 2.04  72 2.06  14 2.94   1 2.98
                            11 2.99   7 3.01
  19  0.252  0.249  0.750-  36 1.85  38 1.85  37 1.86  34 2.05  35 2.07  33 2.08   3 2.97   8 2.98
                             2 2.99  12 3.01
  20  0.997  0.498  0.001-  64 1.85  29 1.87  45 1.88  54 2.03  74 2.05  37 2.07  12 2.92  13 2.98
                             1 2.99   7 3.01
  21  0.001  0.497  0.501-  35 1.85  70 1.85  39 1.87  60 2.05  31 2.06  68 2.08  10 2.93   3 2.98
                            15 3.00   5 3.01
  22  0.500  0.997  0.001-  65 1.85  28 1.86  57 1.87  42 2.04  73 2.06  38 2.07   8 2.95  13 2.98
                             1 3.01  11 3.02
  23  0.500  0.500  0.998-  69 1.85  53 1.87  40 1.87  61 2.05  50 2.05  30 2.06   4 2.93  15 2.97
                             9 3.00   5 3.00
  24  0.751  0.749  0.250-  68 1.85  66 1.85  67 1.86  64 2.07  65 2.08  63 2.08  13 2.98  10 2.98
                            16 2.99   6 3.01
  25  0.500  0.501  0.497-  63 1.85  59 1.87  46 1.87  55 2.04  44 2.04  36 2.08   2 2.94  13 2.97
                             7 3.00  11 3.01
  26  0.749  0.751  0.748-  72 1.85  73 1.86  74 1.86  71 2.05  70 2.07  69 2.07  15 2.94  14 2.97
                             8 2.99  12 3.00
  27  0.056  0.181  0.361-  18 1.86  10 2.02  75 2.05   1 2.24
  28  0.361  0.056  0.181-  22 1.86   6 2.00  75 2.05   1 2.25
  29  0.181  0.360  0.056-  20 1.87   4 2.02  75 2.04   1 2.24
  30  0.432  0.306  0.110-  75 1.87   9 1.99  23 2.06   4 2.21
  31  0.109  0.432  0.306-  75 1.87   5 1.99  21 2.06  10 2.20
  32  0.306  0.110  0.431-  75 1.88   3 2.01  79 2.03   6 2.22
  33  0.055  0.182  0.860-  17 1.84  12 2.01  19 2.08   3 2.21
  34  0.359  0.056  0.682-  79 1.87   8 2.00  19 2.05   3 2.21
  35  0.182  0.361  0.556-  21 1.85   2 2.01  19 2.07   3 2.22
  36  0.432  0.305  0.611-  19 1.85  11 1.99  25 2.08   2 2.22
  37  0.111  0.431  0.805-  19 1.86   7 1.99  20 2.07  12 2.20
  38  0.305  0.111  0.932-  19 1.85   1 1.99  22 2.07   8 2.22
  39  0.056  0.681  0.361-  21 1.87  14 2.01  76 2.04   5 2.23
  40  0.361  0.556  0.181-  23 1.87   2 2.02  76 2.04   5 2.23
  41  0.180  0.861  0.056-  17 1.87   8 2.02  76 2.04   5 2.24
  42  0.431  0.807  0.110-  76 1.88  13 2.00  22 2.04   8 2.21
  43  0.110  0.931  0.306-  76 1.88   1 1.99  18 2.04  14 2.23
  44  0.306  0.610  0.431-  76 1.88   7 1.99  25 2.04   2 2.21
  45  0.056  0.680  0.861-  20 1.88  16 2.02  77 2.03   7 2.24
  46  0.361  0.556  0.680-  25 1.87   4 2.02  77 2.04   7 2.23
  47  0.181  0.861  0.556-  18 1.87   6 2.01  77 2.04   7 2.24
  48  0.431  0.806  0.610-  77 1.89  15 2.02  79 2.02   6 2.22
  49  0.110  0.931  0.807-  77 1.88   3 2.01  17 2.04  16 2.20
  50  0.306  0.610  0.932-  77 1.87   5 2.00  23 2.05   4 2.20
  51  0.557  0.181  0.360-  79 1.89   2 2.00  78 2.02   9 2.24
  52  0.861  0.056  0.181-  17 1.87  14 2.01  78 2.04   9 2.24
  53  0.681  0.361  0.056-  23 1.87  12 2.02  78 2.04   9 2.23
  54  0.931  0.306  0.110-  78 1.89   1 1.99  20 2.03  12 2.21
  55  0.610  0.431  0.306-  78 1.88  13 2.01  25 2.04   2 2.21
  56  0.807  0.110  0.431-  78 1.88  11 1.99  18 2.04  14 2.21
  57  0.556  0.180  0.861-  22 1.87   4 2.01  80 2.04  11 2.24
  58  0.861  0.056  0.681-  18 1.87  16 2.02  80 2.04  11 2.23
  59  0.681  0.361  0.556-  25 1.87  10 2.02  80 2.04  11 2.23
  60  0.931  0.306  0.610-  80 1.88   3 2.01  21 2.05  10 2.20
  61  0.610  0.431  0.806-  80 1.88  15 2.01  23 2.05   4 2.20
  62  0.806  0.109  0.931-  80 1.88   9 1.99  17 2.05  16 2.20
  63  0.556  0.682  0.360-  25 1.85   6 2.00  24 2.08  13 2.22
  64  0.860  0.556  0.180-  20 1.85  10 2.02  24 2.07  13 2.22
  65  0.681  0.860  0.056-  22 1.85  16 2.01  24 2.08  13 2.22
  66  0.931  0.805  0.111-  24 1.85   5 2.00  17 2.08  16 2.21
  67  0.611  0.932  0.305-  24 1.86   9 2.00  79 2.05   6 2.23
  68  0.805  0.611  0.431-  24 1.85  15 2.01  21 2.08  10 2.20
  69  0.556  0.681  0.861-  23 1.85   8 2.01  26 2.07  15 2.21
  70  0.861  0.556  0.681-  21 1.85  12 2.01  26 2.07  15 2.21
  71  0.681  0.860  0.557-  79 1.88  14 2.00  26 2.05  15 2.21
  72  0.931  0.805  0.611-  26 1.85   7 2.00  18 2.06  14 2.22
  73  0.610  0.931  0.806-  26 1.86  11 2.00  22 2.06   8 2.21
  74  0.806  0.611  0.930-  26 1.86  13 2.01  20 2.05  12 2.20
  75  0.249  0.250  0.248-  30 1.87  31 1.87  32 1.88  29 2.04  28 2.05  27 2.05   1 2.97   4 2.98
                            10 2.99   6 3.00   5 3.29   9 3.31   3 3.33
  76  0.248  0.748  0.248-  43 1.88  44 1.88  42 1.88  40 2.04  39 2.04  41 2.04   5 2.94   2 2.99
                             8 2.99  14 2.99   7 3.31   1 3.31  13 3.32
  77  0.248  0.747  0.749-  50 1.87  49 1.88  48 1.89  45 2.03  46 2.04  47 2.04   7 2.95  16 2.98
                             4 2.98   6 3.00   5 3.31   3 3.33  15 3.33
  78  0.747  0.248  0.249-  56 1.88  55 1.88  54 1.89  51 2.02  53 2.04  52 2.04   9 2.94   2 2.97
                            14 2.99  12 3.00  11 3.30   1 3.31  13 3.32
  79  0.497  0.998  0.500-  34 1.87  71 1.88  51 1.89  48 2.02  32 2.03  67 2.05   6 2.93   3 2.98
                            15 2.99   9 3.02   8 3.31   2 3.32  14 3.33
  80  0.748  0.248  0.748-  61 1.88  60 1.88  62 1.88  59 2.04  58 2.04  57 2.04  11 2.94   4 2.98
                            10 2.98  16 2.99   9 3.30   3 3.32  15 3.32
 
  Warning from LATTYP: Got some problem with cell dimensions!
  Tried to take original basis but could not verify dimensions!
  LATTYP: Found a triclinic cell.
 ALAT       =    17.8660964263
 B/A-ratio  =     0.5647103122
 C/A-ratio  =     0.6016367188
 COS(alpha) =     0.0001983670
 COS(beta)  =     0.3367853441
 COS(gamma) =     0.8471333656
  
  Lattice vectors:
  
 A1 = ( -10.0906726265,  11.6498041727,  -9.0364700073)
 A2 = (  -5.0441248293,   8.7377418640,  -0.0008452565)
 A3 = (   5.0439934781,   2.9133853658,  -9.0337787661)


Analysis of symmetry for initial positions (statically):
=====================================================================
 Subroutine PRICEL returns:
 Original cell was already a primitive cell.
 

 Routine SETGRP: Setting up the symmetry group for a 
 triclinic supercell.


 Subroutine GETGRP returns: Found  1 space group operations
 (whereof  1 operations were pure point group operations)
 out of a pool of  2 trial point group operations.


The static configuration has the point symmetry C_1 .


Analysis of symmetry for dynamics (positions and initial velocities):
=====================================================================
 Subroutine PRICEL returns:
 Original cell was already a primitive cell.
 

 Routine SETGRP: Setting up the symmetry group for a 
 triclinic supercell.


 Subroutine GETGRP returns: Found  1 space group operations
 (whereof  1 operations were pure point group operations)
 out of a pool of  2 trial point group operations.


The dynamic configuration has the point symmetry C_1 .


 Subroutine INISYM returns: Found  1 space group operations
 (whereof  1 operations are pure point group operations),
 and found     1 'primitive' translations

 
 
 KPOINTS: Autom                                   

Automatic generation of k-mesh.
Space group operators:
 irot       det(A)        alpha          n_x          n_y          n_z        tau_x        tau_y        tau_z
    1     1.000000     0.000000     1.000000     0.000000     0.000000     0.000000     0.000000     0.000000
 
 Subroutine IBZKPT returns following result:
 ===========================================
 
 Found     36 irreducible k-points:
 
 Following reciprocal coordinates:
            Coordinates               Weight
  0.000000  0.000000  0.000000      1.000000
  0.250000 -0.000000  0.000000      2.000000
  0.500000 -0.000000  0.000000      1.000000
  0.000000  0.250000 -0.000000      2.000000
  0.250000  0.250000 -0.000000      2.000000
  0.500000  0.250000 -0.000000      2.000000
 -0.250000  0.250000  0.000000      2.000000
  0.000000  0.500000 -0.000000      1.000000
  0.250000  0.500000 -0.000000      2.000000
  0.500000  0.500000 -0.000000      1.000000
  0.000000  0.000000  0.250000      2.000000
  0.250000 -0.000000  0.250000      2.000000
  0.500000 -0.000000  0.250000      2.000000
 -0.250000  0.000000  0.250000      2.000000
  0.000000  0.250000  0.250000      2.000000
  0.250000  0.250000  0.250000      2.000000
  0.500000  0.250000  0.250000      2.000000
 -0.250000  0.250000  0.250000      2.000000
  0.000000  0.500000  0.250000      2.000000
  0.250000  0.500000  0.250000      2.000000
  0.500000  0.500000  0.250000      2.000000
 -0.250000  0.500000  0.250000      2.000000
  0.000000 -0.250000  0.250000      2.000000
  0.250000 -0.250000  0.250000      2.000000
  0.500000 -0.250000  0.250000      2.000000
 -0.250000 -0.250000  0.250000      2.000000
  0.000000  0.000000  0.500000      1.000000
  0.250000  0.000000  0.500000      2.000000
  0.500000 -0.000000  0.500000      1.000000
  0.000000  0.250000  0.500000      2.000000
  0.250000  0.250000  0.500000      2.000000
  0.500000  0.250000  0.500000      2.000000
 -0.250000  0.250000  0.500000      2.000000
  0.000000  0.500000  0.500000      1.000000
  0.250000  0.500000  0.500000      2.000000
  0.500000  0.500000  0.500000      1.000000
 
 Following cartesian coordinates:
            Coordinates               Weight
  0.000000  0.000000  0.000000      1.000000
  0.024356 -0.014065  0.009063      2.000000
  0.048712 -0.028131  0.018126      1.000000
 -0.000005  0.028124  0.009067      2.000000
  0.024351  0.014059  0.018130      2.000000
  0.048706 -0.000007  0.027193      2.000000
 -0.024361  0.042190  0.000004      2.000000
 -0.000011  0.056249  0.018134      1.000000
  0.024345  0.042183  0.027197      2.000000
  0.048701  0.028118  0.036260      1.000000
 -0.024355 -0.014059  0.009072      2.000000
  0.000000 -0.028125  0.018135      2.000000
  0.024356 -0.042190  0.027198      2.000000
 -0.048711  0.000006  0.000009      2.000000
 -0.024361  0.014065  0.018139      2.000000
 -0.000005 -0.000000  0.027202      2.000000
  0.024351 -0.014066  0.036265      2.000000
 -0.048717  0.028131  0.009076      2.000000
 -0.024366  0.042189  0.027206      2.000000
 -0.000010  0.028124  0.036269      2.000000
  0.024346  0.014059  0.045332      2.000000
 -0.048722  0.056255  0.018143      2.000000
 -0.024350 -0.042183  0.000005      2.000000
  0.000006 -0.056249  0.009068      2.000000
  0.024362 -0.070314  0.018131      2.000000
 -0.048706 -0.028118 -0.009058      2.000000
 -0.048711 -0.028118  0.018144      1.000000
 -0.024355 -0.042184  0.027207      2.000000
  0.000001 -0.056249  0.036270      1.000000
 -0.048716  0.000006  0.027211      2.000000
 -0.024360 -0.014059  0.036274      2.000000
 -0.000005 -0.028125  0.045337      2.000000
 -0.073072  0.014072  0.018148      2.000000
 -0.048722  0.028130  0.036278      1.000000
 -0.024366  0.014065  0.045341      2.000000
 -0.000010 -0.000000  0.054404      1.000000
 
 TETIRR: Found    192 inequivalent tetrahedra from      384


--------------------------------------------------------------------------------------------------------




 Dimension of arrays:
   k-points           NKPTS =     36   k-points in BZ     NKDIM =     36   number of bands    NBANDS=    288
   number of dos      NEDOS =    301   number of ions     NIONS =     80
   non local maximal  LDIM  =      6   non local SUM 2l+1 LMDIM =     18
   total plane-waves  NPLWV = 512000
   max r-space proj   IRMAX =  14568   max aug-charges    IRDMAX=  43944
   dimension x,y,z NGX =    80 NGY =   80 NGZ =   80
   dimension x,y,z NGXF=   160 NGYF=  160 NGZF=  160
   support grid    NGXF=   160 NGYF=  160 NGZF=  160
   ions per type =              16  10  48   6
   NGX,Y,Z   is equivalent  to a cutoff of  12.37, 12.37, 12.37 a.u.
   NGXF,Y,Z  is equivalent  to a cutoff of  24.74, 24.74, 24.75 a.u.

 SYSTEM =  Li(NbTa)O_3                             
 POSCAR =  Li Nb  O Ta + -5 %                      

 Startparameter for this run:
   NWRITE =      0    write-flag & timer
   PREC   = accura    normal or accurate (medium, high low for compatibility)
   ISTART =      0    job   : 0-new  1-cont  2-samecut
   ICHARG =      2    charge: 1-file 2-atom 10-const
   ISPIN  =      1    spin polarized calculation?
   LNONCOLLINEAR =      F non collinear calculations
   LSORBIT =      F    spin-orbit coupling
   INIWAV =      1    electr: 0-lowe 1-rand  2-diag
   LASPH  =      F    aspherical Exc in radial PAW
   METAGGA=      F    non-selfconsistent MetaGGA calc.

 Electronic Relaxation 1
   ENCUT  =  475.0 eV  34.91 Ry    5.91 a.u.  19.11 19.10 19.10*2*pi/ulx,y,z
   ENINI  =  475.0     initial cutoff
   ENAUG  =  605.4 eV  augmentation charge cutoff
   NELM   =   1000;   NELMIN=  4; NELMDL= -5     # of ELM steps 
   EDIFF  = 0.1E-05   stopping-criterion for ELM
   LREAL  =      T    real-space projection
   NLSPLINE    = F    spline interpolate recip. space projectors
   LCOMPAT=      F    compatible to vasp.4.4
   GGA_COMPAT  = T    GGA compatible to vasp.4.4-vasp.4.6
   LMAXPAW     = -100 max onsite density
   LMAXMIX     =    2 max onsite mixed and CHGCAR
   VOSKOWN=      0    Vosko Wilk Nusair interpolation
   ROPT   =   -0.00025  -0.00025  -0.00025  -0.00025
 Ionic relaxation
   EDIFFG = -.5E-02   stopping-criterion for IOM
   NSW    =    200    number of steps for IOM
   NBLOCK =      1;   KBLOCK =    200    inner block; outer block 
   IBRION =      1    ionic relax: 0-MD 1-quasi-New 2-CG
   NFREE  =      0    steps in history (QN), initial steepest desc. (CG)
   ISIF   =      4    stress and relaxation
   IWAVPR =     11    prediction:  0-non 1-charg 2-wave 3-comb
   ISYM   =      2    0-nonsym 1-usesym 2-fastsym
   LCORR  =      T    Harris-Foulkes like correction to forces

   POTIM  = 0.1500    time-step for ionic-motion
   TEIN   =    0.0    initial temperature
   TEBEG  =    0.0;   TEEND  =   0.0 temperature during run
   SMASS  =  -3.00    Nose mass-parameter (am)
   estimated Nose-frequenzy (Omega)   =  0.10E-29 period in steps =****** mass=  -0.264E-26a.u.
   SCALEE = 1.0000    scale energy and forces
   NPACO  =    256;   APACO  = 16.0  distance and # of slots for P.C.
   PSTRESS=    0.0 pullay stress

  Mass of Ions in am
   POMASS =   7.01 92.91 16.00180.95
  Ionic Valenz
   ZVAL   =   1.00 13.00  6.00  5.00
  Atomic Wigner-Seitz radii
   RWIGS  =  -1.00 -1.00 -1.00 -1.00
  virtual crystal weights 
   VCA    =   1.00  1.00  1.00  1.00
   NELECT =     464.0000    total number of electrons
   NUPDOWN=      -1.0000    fix difference up-down

 DOS related values:
   EMIN   =  10.00;   EMAX   =-10.00  energy-range for DOS
   EFERMI =   0.00
   ISMEAR =    -5;   SIGMA  =   0.05  broadening in eV -4-tet -1-fermi 0-gaus

 Electronic relaxation 2 (details)
   IALGO  =     68    algorithm
   LDIAG  =      T    sub-space diagonalisation (order eigenvalues)
   LSUBROT=      F    optimize rotation matrix (better conditioning)
   TURBO    =      0    0=normal 1=particle mesh
   IRESTART =      0    0=no restart 2=restart with 2 vectors
   NREBOOT  =      0    no. of reboots
   NMIN     =      0    reboot dimension
   EREF     =   0.00    reference energy to select bands
   IMIX   =      4    mixing-type and parameters
     AMIX     =   0.40;   BMIX     =  1.00
     AMIX_MAG =   1.60;   BMIX_MAG =  1.00
     AMIN     =   0.10
     WC   =   100.;   INIMIX=   1;  MIXPRE=   1;  MAXMIX= -45

 Intra band minimization:
   WEIMIN = 0.0010     energy-eigenvalue tresh-hold
   EBREAK =  0.87E-09  absolut break condition
   DEPER  =   0.30     relativ break condition  

   TIME   =   0.40     timestep for ELM

  volume/ion in A,a.u.               =       9.96        67.20
  Fermi-wavevector in a.u.,A,eV,Ry     =   1.367184  2.583603 25.431901  1.869192
  Thomas-Fermi vector in A             =   2.493259
 
 Write flags
   LWAVE        =      F    write WAVECAR
   LDOWNSAMPLE  =      F    k-point downsampling of WAVECAR
   LCHARG       =      F    write CHGCAR
   LVTOT        =      F    write LOCPOT, total local potential
   LVHAR        =      F    write LOCPOT, Hartree potential only
   LELF         =      F    write electronic localiz. function (ELF)
   LORBIT       =      0    0 simple, 1 ext, 2 COOP (PROOUT), +10 PAW based schemes


 Dipole corrections
   LMONO  =      F    monopole corrections only (constant potential shift)
   LDIPOL =      F    correct potential (dipole corrections)
   IDIPOL =      0    1-x, 2-y, 3-z, 4-all directions 
   EPSILON=  1.0000000 bulk dielectric constant

 Exchange correlation treatment:
   GGA     =    PS    GGA type
   LEXCH   =    14    internal setting for exchange type
   VOSKOWN=      0    Vosko Wilk Nusair interpolation
   LHFCALC =     F    Hartree Fock is set to
   LHFONE  =     F    Hartree Fock one center treatment
   AEXX    =    0.0000 exact exchange contribution

 Linear response parameters
   LEPSILON=     F    determine dielectric tensor
   LRPA    =     F    only Hartree local field effects (RPA)
   LNABLA  =     F    use nabla operator in PAW spheres
   LVEL    =     F    velocity operator in full k-point grid
   LINTERFAST=   F  fast interpolation
   KINTER  =     0    interpolate to denser k-point grid
   CSHIFT  =0.1000    complex shift for real part using Kramers Kronig
   OMEGAMAX=  -1.0    maximum frequency
   DEG_THRESHOLD= 0.2000000E-02 threshold for treating states as degnerate
   RTIME   =   -0.100 relaxation time in fs
  (WPLASMAI=    0.000 imaginary part of plasma frequency in eV, 0.658/RTIME)
   DFIELD  = 0.0000000 0.0000000 0.0000000 field for delta impulse in time
 
 Orbital magnetization related:
   ORBITALMAG=     F  switch on orbital magnetization
   LCHIMAG   =     F  perturbation theory with respect to B field
   DQ        =  0.001000  dq finite difference perturbation B field
   LLRAUG    =     F  two centre corrections for induced B field



--------------------------------------------------------------------------------------------------------


 quasi-Newton-method for relaxation of ions
 charge density and potential will be updated during run
 non-spin polarized calculation
 RMM-DIIS sequential band-by-band and
  variant of blocked Davidson during initial phase
 perform sub-space diagonalisation
    before iterative eigenvector-optimisation
 modified Broyden-mixing scheme, WC =      100.0
 initial mixing is a Kerker type mixing with AMIX =  0.4000 and BMIX =      1.0000
 Hartree-type preconditioning will be used
 using additional bands           56
 real space projection scheme for non local part
 use partial core corrections
 calculate Harris-corrections to forces 
   (improved forces if not selfconsistent)
 use gradient corrections 
 use of overlap-Matrix (Vanderbilt PP)
 Fermi weights with tetrahedron method with Bloechl corrections


--------------------------------------------------------------------------------------------------------


  energy-cutoff  :      475.00
  volume of cell :      796.64
      direct lattice vectors                 reciprocal lattice vectors
     5.046547797 -2.912062309  9.035624751     0.099103469 -0.057232013  0.036876965
     0.002422968  5.825679555  9.034779494    -0.000021754  0.114437056  0.036893699
    -5.043993478 -2.913385366  9.033778766    -0.099101964 -0.057206024  0.036913362

  length of vectors
    10.751291374 10.750152960 10.748899632     0.120236897  0.120237204  0.120234457


 
 k-points in units of 2pi/SCALE and weight: Autom                                   
   0.00000000  0.00000000  0.00000000       0.016
   0.02435586 -0.01406545  0.00906295       0.031
   0.04871171 -0.02813090  0.01812591       0.016
  -0.00000535  0.02812427  0.00906707       0.031
   0.02435051  0.01405882  0.01813002       0.031
   0.04870637 -0.00000663  0.02719297       0.031
  -0.02436120  0.04218972  0.00000411       0.031
  -0.00001069  0.05624853  0.01813413       0.016
   0.02434516  0.04218309  0.02719708       0.031
   0.04870102  0.02811764  0.03626004       0.016
  -0.02435549 -0.01405906  0.00907190       0.031
   0.00000037 -0.02812451  0.01813485       0.031
   0.02435623 -0.04218996  0.02719780       0.031
  -0.04871134  0.00000639  0.00000895       0.031
  -0.02436083  0.01406521  0.01813896       0.031
  -0.00000498 -0.00000024  0.02720192       0.031
   0.02435088 -0.01406569  0.03626487       0.031
  -0.04871669  0.02813065  0.00907601       0.031
  -0.02436618  0.04218947  0.02720603       0.031
  -0.00001032  0.02812403  0.03626898       0.031
   0.02434553  0.01405858  0.04533193       0.031
  -0.04872204  0.05625492  0.01814308       0.031
  -0.02435014 -0.04218333  0.00000483       0.031
   0.00000572 -0.05624878  0.00906779       0.031
   0.02436157 -0.07031422  0.01813074       0.031
  -0.04870600 -0.02811788 -0.00905812       0.031
  -0.04871097 -0.02811812  0.01814380       0.016
  -0.02435512 -0.04218357  0.02720675       0.031
   0.00000074 -0.05624902  0.03626970       0.016
  -0.04871632  0.00000615  0.02721086       0.031
  -0.02436046 -0.01405930  0.03627381       0.031
  -0.00000461 -0.02812475  0.04533677       0.031
  -0.07307217  0.01407159  0.01814791       0.031
  -0.04872167  0.02813041  0.03627793       0.016
  -0.02436581  0.01406497  0.04534088       0.031
  -0.00000995 -0.00000048  0.05440383       0.016
 
 k-points in reciprocal lattice and weights: Autom                                   
   0.00000000  0.00000000  0.00000000       0.016
   0.25000000 -0.00000000  0.00000000       0.031
   0.50000000 -0.00000000  0.00000000       0.016
   0.00000000  0.25000000 -0.00000000       0.031
   0.25000000  0.25000000 -0.00000000       0.031
   0.50000000  0.25000000 -0.00000000       0.031
  -0.25000000  0.25000000  0.00000000       0.031
   0.00000000  0.50000000 -0.00000000       0.016
   0.25000000  0.50000000 -0.00000000       0.031
   0.50000000  0.50000000 -0.00000000       0.016
   0.00000000  0.00000000  0.25000000       0.031
   0.25000000 -0.00000000  0.25000000       0.031
   0.50000000 -0.00000000  0.25000000       0.031
  -0.25000000  0.00000000  0.25000000       0.031
   0.00000000  0.25000000  0.25000000       0.031
   0.25000000  0.25000000  0.25000000       0.031
   0.50000000  0.25000000  0.25000000       0.031
  -0.25000000  0.25000000  0.25000000       0.031
   0.00000000  0.50000000  0.25000000       0.031
   0.25000000  0.50000000  0.25000000       0.031
   0.50000000  0.50000000  0.25000000       0.031
  -0.25000000  0.50000000  0.25000000       0.031
   0.00000000 -0.25000000  0.25000000       0.031
   0.25000000 -0.25000000  0.25000000       0.031
   0.50000000 -0.25000000  0.25000000       0.031
  -0.25000000 -0.25000000  0.25000000       0.031
   0.00000000  0.00000000  0.50000000       0.016
   0.25000000  0.00000000  0.50000000       0.031
   0.50000000 -0.00000000  0.50000000       0.016
   0.00000000  0.25000000  0.50000000       0.031
   0.25000000  0.25000000  0.50000000       0.031
   0.50000000  0.25000000  0.50000000       0.031
  -0.25000000  0.25000000  0.50000000       0.031
   0.00000000  0.50000000  0.50000000       0.016
   0.25000000  0.50000000  0.50000000       0.031
   0.50000000  0.50000000  0.50000000       0.016
 
 position of ions in fractional coordinates (direct lattice) 
   0.13834752  0.13936271  0.13984335
   0.39146324  0.38999630  0.39085144
   0.14028321  0.14032414  0.64092124
   0.39173469  0.39088444  0.89059988
   0.14005761  0.63914415  0.13990376
   0.38998511  0.89022976  0.39046082
   0.14027342  0.63856692  0.63942290
   0.39066873  0.89122478  0.89017412
   0.63968950  0.14081636  0.13851063
   0.89081879  0.39199278  0.39127564
   0.64044608  0.13979598  0.63895884
   0.89104424  0.39188824  0.88993991
   0.63987068  0.64050964  0.14005521
   0.88952244  0.89019616  0.39154151
   0.64095434  0.64008558  0.64144699
   0.89103108  0.89076076  0.89134632
   0.99959237  0.00150112  0.99675172
   0.99938324  0.00003493  0.49763958
   0.25168038  0.24891337  0.74959517
   0.99749990  0.49794372  0.00086033
   0.00052440  0.49715140  0.50088067
   0.49988249  0.99738472  0.00090131
   0.49954620  0.50003968  0.99785757
   0.75097315  0.74942469  0.24984287
   0.49985523  0.50129758  0.49655071
   0.74940214  0.75095878  0.74802348
   0.05623360  0.18120304  0.36059596
   0.36055215  0.05618073  0.18135900
   0.18067803  0.36043515  0.05635112
   0.43164615  0.30579781  0.11007695
   0.10933811  0.43208088  0.30572184
   0.30616879  0.11038237  0.43144631
   0.05540035  0.18155956  0.86034038
   0.35943918  0.05639020  0.68203455
   0.18159346  0.36067916  0.55556672
   0.43176800  0.30520898  0.61104129
   0.11066152  0.43074915  0.80539644
   0.30515946  0.11079423  0.93190663
   0.05604537  0.68076856  0.36081137
   0.36061507  0.55618152  0.18081868
   0.18040413  0.86090372  0.05629587
   0.43096027  0.80670950  0.10983535
   0.11018018  0.93120277  0.30647725
   0.30631393  0.60963452  0.43142758
   0.05642617  0.67983109  0.86072292
   0.36082901  0.55621291  0.68039936
   0.18050111  0.86073339  0.55625759
   0.43105925  0.80638098  0.60992686
   0.10974163  0.93076687  0.80662904
   0.30592914  0.60973059  0.93157562
   0.55668960  0.18089021  0.36049958
   0.86099568  0.05588109  0.18065345
   0.68094161  0.36072792  0.05606070
   0.93094987  0.30643726  0.10970186
   0.61015919  0.43137998  0.30635721
   0.80662739  0.10979363  0.43135599
   0.55625493  0.18016866  0.86082204
   0.86060460  0.05601788  0.68054061
   0.68056339  0.36084158  0.55626059
   0.93128773  0.30623948  0.60979445
   0.61008613  0.43101265  0.80636497
   0.80623116  0.10929440  0.93147945
   0.55554077  0.68183433  0.36007734
   0.86007458  0.55634829  0.18046819
   0.68107200  0.86046774  0.05575260
   0.93136114  0.80492582  0.11095065
   0.61067752  0.93165297  0.30547765
   0.80503784  0.61074302  0.43111591
   0.55556968  0.68082022  0.86090541
   0.86059508  0.55581627  0.68050717
   0.68097931  0.85972506  0.55655493
   0.93138973  0.80539064  0.61084254
   0.61024363  0.93134011  0.80571432
   0.80584636  0.61083297  0.93009391
   0.24862253  0.24992729  0.24762435
   0.24806756  0.74806531  0.24849505
   0.24752603  0.74745881  0.74934160
   0.74730972  0.24776208  0.24918815
   0.49682629  0.99767190  0.50015434
   0.74834988  0.24827406  0.74832874
 
 position of ions in cartesian coordinates  (Angst):
  -0.00685388  0.00158835  3.77248154
   0.00503080 -0.00667271 10.59151096
  -2.52451665 -1.45828053  8.32528487
  -2.51432503 -1.45824902 15.11660468
   0.00268242  2.90799897  8.30389404
   0.00075369  2.91296957 15.09412535
  -2.51580118  1.44871599 12.81317439
  -2.51634465  1.46091803 19.62359146
   2.52991814 -1.44599953  8.30351349
   2.52291760 -1.45043222 15.12537020
   0.00947621 -2.91214564 12.82206914
   0.00879578 -2.90449895 19.63128551
   2.52425237  1.46002582 12.83372245
   2.51624160  1.45494147 19.61721644
   0.00070321 -0.00634774 17.36914518
   0.00284418 -0.00228658 24.15107503
   0.01688514 -5.80605214 18.04993840
   2.53334460 -4.35987867 13.52593341
  -2.51023299 -1.46667897 11.29464380
   5.03079789 -0.00642778 13.51961851
  -2.52258784  1.43545927  9.02123665
   2.52055132  4.35212896 13.53604380
  -2.51099171 -1.44878239 18.04588479
   2.53143196  1.45113893 15.81342364
   0.01915938  0.01814589 13.53134665
   0.01068773  0.01325884 20.31354208
  -1.53461904 -0.15867987  5.40277937
   0.90490617 -1.25102807  5.40375154
   0.62843897  1.40946149  5.39805454
   1.62383648  0.20380302  7.65741925
  -0.98923207  1.30807985  7.65351708
  -0.63084949 -1.50549963  7.66129726
  -4.05953084 -1.61012456  9.91305201
  -1.62611422 -2.70522755  9.91857974
  -1.88498096 -0.04619020  9.91833394
  -0.90241090 -1.25948438 12.17880124
  -3.50291209 -0.15927695 12.16739277
  -3.16026070 -2.95819482 12.17694623
  -1.53544507  2.75154934  9.91648879
   0.90916054  1.66320725  9.91683573
   0.62854797  4.32598956  9.91670375
   1.62280745  3.12465518 12.17466607
  -0.98758340  4.21115103 12.17740609
  -0.62881292  1.40261531 12.17307247
  -4.05507625  1.28854403 14.42755014
  -1.60964142  0.20729612 14.43215381
  -1.89276662  2.86813369 14.43258468
  -0.89915215  1.66549384 16.69030825
  -3.51256003  2.75275379 16.68776595
  -3.15349795 -0.05282848 16.68869042
   0.99144143 -1.61758064  9.92101496
   3.43397640 -2.70804089  9.91649051
   3.15450861 -0.04478554  9.91827005
   4.14549002 -1.24538257 12.17132908
   1.53497892 -0.15627664 12.17815578
   1.89519292 -2.96603292 12.17711821
  -1.53437710 -3.07815048 14.43037080
   0.91057558 -4.16246906 14.43006265
   0.62959523 -1.50029708 14.43457460
   1.62473082 -2.70448105 16.69032085
  -0.98742650 -1.61491915 16.69113639
  -0.62942735 -4.42483983 16.68703231
   0.98898736  1.30533490 14.43273976
   3.43147512  0.21074272 14.42810503
   3.15793153  2.86705645 14.43170396
   4.14247448  1.65381620 16.69006071
   1.54324339  2.75920652 16.69474960
   1.88959592 -0.04233399 16.68655413
  -1.53704272 -0.15976230 18.94820882
   0.91190722 -1.25067866 18.94524280
   0.63141827  1.40396953 18.94829388
   1.62116845  0.20006312 21.21043137
  -0.98213751  1.30126528 21.20702995
  -0.62316539 -1.49787967 21.20232908
   0.00627543  0.01056685  6.74148140
   0.00028993  2.91163876 11.24489974
  -2.52871115  1.45052340 15.75906408
   2.51503114 -1.45881112 11.24199656
  -0.01310028  2.90818533 18.02116517
   0.00261976 -2.91304636 15.76514637
 


--------------------------------------------------------------------------------------------------------


 k-point  1 :   0.0000 0.0000 0.0000  plane waves:   18691
 k-point  2 :   0.2500-0.0000 0.0000  plane waves:   18712
 k-point  3 :   0.5000-0.0000 0.0000  plane waves:   18746
 k-point  4 :   0.0000 0.2500-0.0000  plane waves:   18712
 k-point  5 :   0.2500 0.2500-0.0000  plane waves:   18700
 k-point  6 :   0.5000 0.2500-0.0000  plane waves:   18728
 k-point  7 :  -0.2500 0.2500 0.0000  plane waves:   18735
 k-point  8 :   0.0000 0.5000-0.0000  plane waves:   18744
 k-point  9 :   0.2500 0.5000-0.0000  plane waves:   18725
 k-point 10 :   0.5000 0.5000-0.0000  plane waves:   18744
 k-point 11 :   0.0000 0.0000 0.2500  plane waves:   18716
 k-point 12 :   0.2500-0.0000 0.2500  plane waves:   18703
 k-point 13 :   0.5000-0.0000 0.2500  plane waves:   18726
 k-point 14 :  -0.2500 0.0000 0.2500  plane waves:   18734
 k-point 15 :   0.0000 0.2500 0.2500  plane waves:   18707
 k-point 16 :   0.2500 0.2500 0.2500  plane waves:   18697
 k-point 17 :   0.5000 0.2500 0.2500  plane waves:   18744
 k-point 18 :  -0.2500 0.2500 0.2500  plane waves:   18712
 k-point 19 :   0.0000 0.5000 0.2500  plane waves:   18727
 k-point 20 :   0.2500 0.5000 0.2500  plane waves:   18743
 k-point 21 :   0.5000 0.5000 0.2500  plane waves:   18746
 k-point 22 :  -0.2500 0.5000 0.2500  plane waves:   18728
 k-point 23 :   0.0000-0.2500 0.2500  plane waves:   18736
 k-point 24 :   0.2500-0.2500 0.2500  plane waves:   18710
 k-point 25 :   0.5000-0.2500 0.2500  plane waves:   18730
 k-point 26 :  -0.2500-0.2500 0.2500  plane waves:   18711
 k-point 27 :   0.0000 0.0000 0.5000  plane waves:   18748
 k-point 28 :   0.2500 0.0000 0.5000  plane waves:   18728
 k-point 29 :   0.5000-0.0000 0.5000  plane waves:   18744
 k-point 30 :   0.0000 0.2500 0.5000  plane waves:   18727
 k-point 31 :   0.2500 0.2500 0.5000  plane waves:   18742
 k-point 32 :   0.5000 0.2500 0.5000  plane waves:   18741
 k-point 33 :  -0.2500 0.2500 0.5000  plane waves:   18729
 k-point 34 :   0.0000 0.5000 0.5000  plane waves:   18748
 k-point 35 :   0.2500 0.5000 0.5000  plane waves:   18743
 k-point 36 :   0.5000 0.5000 0.5000  plane waves:   18714

 maximum and minimum number of plane-waves per node :     18748    18691

 maximum number of plane-waves:     18748
 maximum index in each direction: 
   IXMAX=   19   IYMAX=   19   IZMAX=   19
   IXMIN=  -19   IYMIN=  -19   IZMIN=  -19


 serial   3D FFT for wavefunctions
 parallel 3D FFT for charge:
    minimum data exchange during FFTs selected (reduces bandwidth)


 total amount of memory used by VASP MPI-rank0   179224. kBytes
=======================================================================

   base      :      30000. kBytes
   nonlr-proj:      72119. kBytes
   fftplans  :       4575. kBytes
   grid      :      26165. kBytes
   one-center:       1244. kBytes
   wavefun   :      45121. kBytes
 
     INWAV:  cpu time    0.0000: real time    0.0000
 Broyden mixing: mesh for mixing (old mesh)
   NGX = 39   NGY = 39   NGZ = 39
  (NGX  =160   NGY  =160   NGZ  =160)
  gives a total of  59319 points

 initial charge density was supplied:
 charge density of overlapping atoms calculated
 number of electron     464.0000000 magnetization 
 keeping initial charge density in first step


--------------------------------------------------------------------------------------------------------


 Maximum index for non-local projection operator        14113
 Maximum index for augmentation-charges         1372 (set IRDMAX)


--------------------------------------------------------------------------------------------------------


 First call to EWALD:  gamma=   0.191
 Maximum number of real-space cells 3x 3x 3
 Maximum number of reciprocal cells 3x 3x 3

    FEWALD:  cpu time    0.0028: real time    0.0031


--------------------------------------- Iteration      1(   1)  ---------------------------------------


    POTLOK:  cpu time    0.0921: real time    0.0983
    SETDIJ:  cpu time    0.0119: real time    0.0119
     EDDAV:  cpu time   26.6503: real time   26.6449
 BZINTS: Fermi energy: 20.031478;464.000000 electrons
         Band energy: 427.687670;  BLOECHL correction: -0.042150
       DOS:  cpu time    0.0626: real time    0.0626
    --------------------------------------------
      LOOP:  cpu time   26.8170: real time   26.8177

 eigenvalue-minimisations  : 20736
 total energy-change (2. order) : 0.3689208E+04  (-0.2476266E+05)
 number of electron     464.0000000 magnetization 
 augmentation part      464.0000000 magnetization 

 Free energy of the ion-electron system (eV)
  ---------------------------------------------------
  alpha Z        PSCENC =      1727.30532944
  Ewald energy   TEWEN  =    -27261.25535038
  -Hartree energ DENC   =    -10415.85481299
  -exchange      EXHF   =         0.00000000
  -V(xc)+E(xc)   XCENC  =      1474.95449279
  PAW double counting   =     30201.20122080   -29545.67637776
  entropy T*S    EENTRO =         0.00000000
  eigenvalues    EBANDS =       427.68767028
  atomic energy  EATOM  =     37080.84622879
  Solvation  Ediel_sol  =         0.00000000
  ---------------------------------------------------
  free energy    TOTEN  =      3689.20840096 eV

  energy without entropy =     3689.20840096  energy(sigma->0) =     3689.20840096


--------------------------------------------------------------------------------------------------------




--------------------------------------- Iteration      1(   2)  ---------------------------------------


     EDDAV:  cpu time   40.0667: real time   40.0672
 BZINTS: Fermi energy:  1.524876;464.000000 electrons
         Band energy:***********;  BLOECHL correction:  0.000000
       DOS:  cpu time    0.0108: real time    0.0108
    --------------------------------------------
      LOOP:  cpu time   40.0775: real time   40.0779

 eigenvalue-minimisations  : 31104
 total energy-change (2. order) :-0.4244799E+04  (-0.4182374E+04)
 number of electron     464.0000000 magnetization 
 augmentation part      464.0000000 magnetization 

 Free energy of the ion-electron system (eV)
  ---------------------------------------------------
  alpha Z        PSCENC =      1727.30532944
  Ewald energy   TEWEN  =    -27261.25535038
  -Hartree energ DENC   =    -10415.85481299
  -exchange      EXHF   =         0.00000000
  -V(xc)+E(xc)   XCENC  =      1474.95449279
  PAW double counting   =     30201.20122080   -29545.67637776
  entropy T*S    EENTRO =         0.00000000
  eigenvalues    EBANDS =     -3817.11147490
  atomic energy  EATOM  =     37080.84622879
  Solvation  Ediel_sol  =         0.00000000
  ---------------------------------------------------
  free energy    TOTEN  =      -555.59074422 eV

  energy without entropy =     -555.59074422  energy(sigma->0) =     -555.59074422


--------------------------------------------------------------------------------------------------------




--------------------------------------- Iteration      1(   3)  ---------------------------------------


     EDDAV:  cpu time   39.5899: real time   39.5934
 BZINTS: Fermi energy:  0.591705;464.000000 electrons
         Band energy:***********;  BLOECHL correction:  0.000000
       DOS:  cpu time    0.0093: real time    0.0093
    --------------------------------------------
      LOOP:  cpu time   39.5991: real time   39.6027

 eigenvalue-minimisations  : 31104
 total energy-change (2. order) :-0.2389708E+03  (-0.2381554E+03)
 number of electron     464.0000000 magnetization 
 augmentation part      464.0000000 magnetization 

 Free energy of the ion-electron system (eV)
  ---------------------------------------------------
  alpha Z        PSCENC =      1727.30532944
  Ewald energy   TEWEN  =    -27261.25535038
  -Hartree energ DENC   =    -10415.85481299
  -exchange      EXHF   =         0.00000000
  -V(xc)+E(xc)   XCENC  =      1474.95449279
  PAW double counting   =     30201.20122080   -29545.67637776
  entropy T*S    EENTRO =         0.00000000
  eigenvalues    EBANDS =     -4056.08229551
  atomic energy  EATOM  =     37080.84622879
  Solvation  Ediel_sol  =         0.00000000
  ---------------------------------------------------
  free energy    TOTEN  =      -794.56156483 eV

  energy without entropy =     -794.56156483  energy(sigma->0) =     -794.56156483


--------------------------------------------------------------------------------------------------------




--------------------------------------- Iteration      1(   4)  ---------------------------------------


     EDDAV:  cpu time   46.2052: real time   46.2116
 BZINTS: Fermi energy:  0.615681;464.000000 electrons
         Band energy:***********;  BLOECHL correction:  0.000000
       DOS:  cpu time    0.0092: real time    0.0092
    --------------------------------------------
      LOOP:  cpu time   46.2144: real time   46.2208

 eigenvalue-minimisations  : 36288
 total energy-change (2. order) :-0.1084490E+02  (-0.1083667E+02)
 number of electron     464.0000000 magnetization 
 augmentation part      464.0000000 magnetization 

 Free energy of the ion-electron system (eV)
  ---------------------------------------------------
  alpha Z        PSCENC =      1727.30532944
  Ewald energy   TEWEN  =    -27261.25535038
  -Hartree energ DENC   =    -10415.85481299
  -exchange      EXHF   =         0.00000000
  -V(xc)+E(xc)   XCENC  =      1474.95449279
  PAW double counting   =     30201.20122080   -29545.67637776
  entropy T*S    EENTRO =         0.00000000
  eigenvalues    EBANDS =     -4066.92719812
  atomic energy  EATOM  =     37080.84622879
  Solvation  Ediel_sol  =         0.00000000
  ---------------------------------------------------
  free energy    TOTEN  =      -805.40646744 eV

  energy without entropy =     -805.40646744  energy(sigma->0) =     -805.40646744


--------------------------------------------------------------------------------------------------------




--------------------------------------- Iteration      1(   5)  ---------------------------------------


     EDDAV:  cpu time   41.0842: real time   41.0957
 BZINTS: Fermi energy:  0.722726;464.000000 electrons
         Band energy:***********;  BLOECHL correction:  0.000000
       DOS:  cpu time    0.0109: real time    0.0109
    CHARGE:  cpu time    0.9907: real time    0.9906
    MIXING:  cpu time    0.0012: real time    0.0012
    --------------------------------------------
      LOOP:  cpu time   42.0870: real time   42.0984

 eigenvalue-minimisations  : 32616
 total energy-change (2. order) :-0.1901387E+00  (-0.1901348E+00)
 number of electron     464.0000035 magnetization 
 augmentation part       51.9388165 magnetization 

 Broyden mixing:
  rms(total) = 0.11530E+02    rms(broyden)= 0.11529E+02
  rms(prec ) = 0.13291E+02
  weight for this iteration     100.00

 Free energy of the ion-electron system (eV)
  ---------------------------------------------------
  alpha Z        PSCENC =      1727.30532944
  Ewald energy   TEWEN  =    -27261.25535038
  -Hartree energ DENC   =    -10415.85481299
  -exchange      EXHF   =         0.00000000
  -V(xc)+E(xc)   XCENC  =      1474.95449279
  PAW double counting   =     30201.20122080   -29545.67637776
  entropy T*S    EENTRO =         0.00000000
  eigenvalues    EBANDS =     -4067.11733681
  atomic energy  EATOM  =     37080.84622879
  Solvation  Ediel_sol  =         0.00000000
  ---------------------------------------------------
  free energy    TOTEN  =      -805.59660613 eV

  energy without entropy =     -805.59660613  energy(sigma->0) =     -805.59660613


--------------------------------------------------------------------------------------------------------




--------------------------------------- Iteration      1(   6)  ---------------------------------------


    POTLOK:  cpu time    0.0495: real time    0.0636
    SETDIJ:  cpu time    0.0102: real time    0.0105
    EDDIAG:  cpu time    3.9466: real time    3.9462
  RMM-DIIS:  cpu time   13.9608: real time   13.9595
    ORTHCH:  cpu time    0.5415: real time    0.5414
 BZINTS: Fermi energy:  3.762356;464.000000 electrons
         Band energy:***********;  BLOECHL correction:  0.000000
       DOS:  cpu time    0.0087: real time    0.0087
    CHARGE:  cpu time    0.9927: real time    0.9926
    MIXING:  cpu time    0.0012: real time    0.0012
    --------------------------------------------
      LOOP:  cpu time   19.5113: real time   19.5237

 eigenvalue-minimisations  : 23200
 total energy-change (2. order) : 0.1176832E+03  (-0.6472698E+02)
 number of electron     464.0000025 magnetization 
 augmentation part       45.2870059 magnetization 

 Broyden mixing:
  rms(total) = 0.56130E+01    rms(broyden)= 0.56118E+01
  rms(prec ) = 0.57358E+01
  weight for this iteration     100.00

 eigenvalues of (default mixing * dielectric matrix)
  average eigenvalue GAMMA=   1.1868
  1.1868

 Free energy of the ion-electron system (eV)
  ---------------------------------------------------
  alpha Z        PSCENC =      1727.30532944
  Ewald energy   TEWEN  =    -27261.25535038
  -Hartree energ DENC   =    -10919.53587397
  -exchange      EXHF   =         0.00000000
  -V(xc)+E(xc)   XCENC  =      1528.92693520
  PAW double counting   =     37249.17941650   -36625.45635113
  entropy T*S    EENTRO =         0.00000000
  eigenvalues    EBANDS =     -3467.92371959
  atomic energy  EATOM  =     37080.84622879
  Solvation  Ediel_sol  =         0.00000000
  ---------------------------------------------------
  free energy    TOTEN  =      -687.91338514 eV

  energy without entropy =     -687.91338514  energy(sigma->0) =     -687.91338514


--------------------------------------------------------------------------------------------------------




--------------------------------------- Iteration      1(   7)  ---------------------------------------


    POTLOK:  cpu time    0.0520: real time    0.0677
    SETDIJ:  cpu time    0.0101: real time    0.0104
    EDDIAG:  cpu time    3.9370: real time    3.9366
  RMM-DIIS:  cpu time   16.0576: real time   16.0560
    ORTHCH:  cpu time    0.5410: real time    0.5409
 BZINTS: Fermi energy:  3.412002;464.000000 electrons
         Band energy:***********;  BLOECHL correction:  0.000000
       DOS:  cpu time    0.0084: real time    0.0084
    CHARGE:  cpu time    0.9776: real time    0.9775
    MIXING:  cpu time    0.0011: real time    0.0011
    --------------------------------------------
      LOOP:  cpu time   21.5847: real time   21.5986

 eigenvalue-minimisations  : 23736
 total energy-change (2. order) : 0.9159256E+01  (-0.3122952E+01)
 number of electron     464.0000026 magnetization 
 augmentation part       45.4565126 magnetization 

 Broyden mixing:
  rms(total) = 0.23607E+01    rms(broyden)= 0.23606E+01
  rms(prec ) = 0.24459E+01
  weight for this iteration     100.00

 eigenvalues of (default mixing * dielectric matrix)
  average eigenvalue GAMMA=   1.1692
  0.8525  1.4859

 Free energy of the ion-electron system (eV)
  ---------------------------------------------------
  alpha Z        PSCENC =      1727.30532944
  Ewald energy   TEWEN  =    -27261.25535038
  -Hartree energ DENC   =    -10809.92453952
  -exchange      EXHF   =         0.00000000
  -V(xc)+E(xc)   XCENC  =      1522.18031113
  PAW double counting   =     44053.57773215   -43419.16174530
  entropy T*S    EENTRO =         0.00000000
  eigenvalues    EBANDS =     -3572.32209561
  atomic energy  EATOM  =     37080.84622879
  Solvation  Ediel_sol  =         0.00000000
  ---------------------------------------------------
  free energy    TOTEN  =      -678.75412930 eV

  energy without entropy =     -678.75412930  energy(sigma->0) =     -678.75412930


--------------------------------------------------------------------------------------------------------




--------------------------------------- Iteration      1(   8)  ---------------------------------------


    POTLOK:  cpu time    0.0475: real time    0.0605
    SETDIJ:  cpu time    0.0100: real time    0.0104
    EDDIAG:  cpu time    3.9357: real time    3.9357
  RMM-DIIS:  cpu time   16.4659: real time   16.4642
    ORTHCH:  cpu time    0.5411: real time    0.5411
 BZINTS: Fermi energy:  3.321978;464.000000 electrons
         Band energy:***********;  BLOECHL correction:  0.000000
       DOS:  cpu time    0.0099: real time    0.0099
    CHARGE:  cpu time    0.9786: real time    0.9785
    MIXING:  cpu time    0.0013: real time    0.0013
    --------------------------------------------
      LOOP:  cpu time   21.9900: real time   22.0016

 eigenvalue-minimisations  : 25606
 total energy-change (2. order) : 0.1616222E+00  (-0.9824828E+00)
 number of electron     464.0000027 magnetization 
 augmentation part       45.5388706 magnetization 

 Broyden mixing:
  rms(total) = 0.10002E+01    rms(broyden)= 0.10001E+01
  rms(prec ) = 0.10432E+01
  weight for this iteration     100.00

 eigenvalues of (default mixing * dielectric matrix)
  average eigenvalue GAMMA=   1.3787
  2.1567  0.9897  0.9897

 Free energy of the ion-electron system (eV)
  ---------------------------------------------------
  alpha Z        PSCENC =      1727.30532944
  Ewald energy   TEWEN  =    -27261.25535038
  -Hartree energ DENC   =    -10780.65531097
  -exchange      EXHF   =         0.00000000
  -V(xc)+E(xc)   XCENC  =      1520.25723791
  PAW double counting   =     46682.64775263   -46036.03358562
  entropy T*S    EENTRO =         0.00000000
  eigenvalues    EBANDS =     -3611.70480892
  atomic energy  EATOM  =     37080.84622879
  Solvation  Ediel_sol  =         0.00000000
  ---------------------------------------------------
  free energy    TOTEN  =      -678.59250712 eV

  energy without entropy =     -678.59250712  energy(sigma->0) =     -678.59250712


--------------------------------------------------------------------------------------------------------




--------------------------------------- Iteration      1(   9)  ---------------------------------------


    POTLOK:  cpu time    0.0488: real time    0.0613
    SETDIJ:  cpu time    0.0103: real time    0.0104
    EDDIAG:  cpu time    3.9516: real time    3.9514
  RMM-DIIS:  cpu time   18.2657: real time   18.2645
    ORTHCH:  cpu time    0.5455: real time    0.5455
 BZINTS: Fermi energy:  3.339906;464.000000 electrons
         Band energy:***********;  BLOECHL correction:  0.000000
       DOS:  cpu time    0.0100: real time    0.0100
    CHARGE:  cpu time    0.9802: real time    0.9802
    MIXING:  cpu time    0.0013: real time    0.0013
    --------------------------------------------
      LOOP:  cpu time   23.8134: real time   23.8245

 eigenvalue-minimisations  : 32081
 total energy-change (2. order) : 0.6829647E-01  (-0.1596521E+00)
 number of electron     464.0000027 magnetization 
 augmentation part       45.2562870 magnetization 

 Broyden mixing:
  rms(total) = 0.26648E+00    rms(broyden)= 0.26646E+00
  rms(prec ) = 0.28991E+00
  weight for this iteration     100.00

 eigenvalues of (default mixing * dielectric matrix)
  average eigenvalue GAMMA=   1.4614
  2.3759  1.6064  0.9316  0.9316

 Free energy of the ion-electron system (eV)
  ---------------------------------------------------
  alpha Z        PSCENC =      1727.30532944
  Ewald energy   TEWEN  =    -27261.25535038
  -Hartree energ DENC   =    -10817.31525392
  -exchange      EXHF   =         0.00000000
  -V(xc)+E(xc)   XCENC  =      1523.09285982
  PAW double counting   =     48782.17104557   -48123.66683371
  entropy T*S    EENTRO =         0.00000000
  eigenvalues    EBANDS =     -3589.70223626
  atomic energy  EATOM  =     37080.84622879
  Solvation  Ediel_sol  =         0.00000000
  ---------------------------------------------------
  free energy    TOTEN  =      -678.52421066 eV

  energy without entropy =     -678.52421066  energy(sigma->0) =     -678.52421066


--------------------------------------------------------------------------------------------------------




--------------------------------------- Iteration      1(  10)  ---------------------------------------


    POTLOK:  cpu time    0.0497: real time    0.0643
    SETDIJ:  cpu time    0.0101: real time    0.0105
    EDDIAG:  cpu time    3.9320: real time    3.9319
  RMM-DIIS:  cpu time   18.4833: real time   18.4820
    ORTHCH:  cpu time    0.5401: real time    0.5401
 BZINTS: Fermi energy:  3.349943;464.000000 electrons
         Band energy:***********;  BLOECHL correction:  0.000000
       DOS:  cpu time    0.0100: real time    0.0100
    CHARGE:  cpu time    0.9819: real time    0.9819
    MIXING:  cpu time    0.0013: real time    0.0013
    --------------------------------------------
      LOOP:  cpu time   24.0084: real time   24.0219

 eigenvalue-minimisations  : 33341
 total energy-change (2. order) :-0.1257716E-01  (-0.3575624E-01)
 number of electron     464.0000027 magnetization 
 augmentation part       45.0953074 magnetization 

 Broyden mixing:
  rms(total) = 0.63349E-01    rms(broyden)= 0.63326E-01
  rms(prec ) = 0.71871E-01
  weight for this iteration     100.00

 eigenvalues of (default mixing * dielectric matrix)
  average eigenvalue GAMMA=   1.4557
  2.6349  1.9243  0.9634  0.9634  0.7924

 Free energy of the ion-electron system (eV)
  ---------------------------------------------------
  alpha Z        PSCENC =      1727.30532944
  Ewald energy   TEWEN  =    -27261.25535038
  -Hartree energ DENC   =    -10842.20496858
  -exchange      EXHF   =         0.00000000
  -V(xc)+E(xc)   XCENC  =      1524.32022986
  PAW double counting   =     48891.87255694   -48227.03602955
  entropy T*S    EENTRO =         0.00000000
  eigenvalues    EBANDS =     -3572.38478433
  atomic energy  EATOM  =     37080.84622879
  Solvation  Ediel_sol  =         0.00000000
  ---------------------------------------------------
  free energy    TOTEN  =      -678.53678782 eV

  energy without entropy =     -678.53678782  energy(sigma->0) =     -678.53678782


--------------------------------------------------------------------------------------------------------




--------------------------------------- Iteration      1(  11)  ---------------------------------------


    POTLOK:  cpu time    0.0468: real time    0.0569
    SETDIJ:  cpu time    0.0099: real time    0.0099
    EDDIAG:  cpu time    3.9474: real time    3.9470
  RMM-DIIS:  cpu time   19.4863: real time   19.4850
    ORTHCH:  cpu time    0.5400: real time    0.5400
 BZINTS: Fermi energy:  3.333528;464.000000 electrons
         Band energy:***********;  BLOECHL correction:  0.000000
       DOS:  cpu time    0.0100: real time    0.0100
    CHARGE:  cpu time    0.9919: real time    0.9918
    MIXING:  cpu time    0.0013: real time    0.0013
    --------------------------------------------
      LOOP:  cpu time   25.0336: real time   25.0419

 eigenvalue-minimisations  : 35319
 total energy-change (2. order) :-0.1057685E-01  (-0.1110351E-01)
 number of electron     464.0000027 magnetization 
 augmentation part       45.0311005 magnetization 

 Broyden mixing:
  rms(total) = 0.28996E-01    rms(broyden)= 0.28979E-01
  rms(prec ) = 0.32408E-01
  weight for this iteration     100.00

 eigenvalues of (default mixing * dielectric matrix)
  average eigenvalue GAMMA=   1.5788
  3.2502  2.0906  1.3569  0.9544  0.9544  0.8663

 Free energy of the ion-electron system (eV)
  ---------------------------------------------------
  alpha Z        PSCENC =      1727.30532944
  Ewald energy   TEWEN  =    -27261.25535038
  -Hartree energ DENC   =    -10847.81174394
  -exchange      EXHF   =         0.00000000
  -V(xc)+E(xc)   XCENC  =      1524.54906523
  PAW double counting   =     48912.64940896   -48244.97525612
  entropy T*S    EENTRO =         0.00000000
  eigenvalues    EBANDS =     -3569.85504664
  atomic energy  EATOM  =     37080.84622879
  Solvation  Ediel_sol  =         0.00000000
  ---------------------------------------------------
  free energy    TOTEN  =      -678.54736466 eV

  energy without entropy =     -678.54736466  energy(sigma->0) =     -678.54736466


--------------------------------------------------------------------------------------------------------




--------------------------------------- Iteration      1(  12)  ---------------------------------------


    POTLOK:  cpu time    0.0508: real time    0.0670
    SETDIJ:  cpu time    0.0099: real time    0.0102
    EDDIAG:  cpu time    3.9272: real time    3.9270
  RMM-DIIS:  cpu time   19.4185: real time   19.4169
    ORTHCH:  cpu time    0.5410: real time    0.5410
 BZINTS: Fermi energy:  3.365337;464.000000 electrons
         Band energy:***********;  BLOECHL correction:  0.000000
       DOS:  cpu time    0.0084: real time    0.0084
    CHARGE:  cpu time    0.9925: real time    0.9924
    MIXING:  cpu time    0.0014: real time    0.0014
    --------------------------------------------
      LOOP:  cpu time   24.9498: real time   24.9643

 eigenvalue-minimisations  : 34430
 total energy-change (2. order) :-0.3355167E-02  (-0.4042645E-02)
 number of electron     464.0000027 magnetization 
 augmentation part       44.9897102 magnetization 

 Broyden mixing:
  rms(total) = 0.17433E-01    rms(broyden)= 0.17427E-01
  rms(prec ) = 0.18501E-01
  weight for this iteration     100.00

 eigenvalues of (default mixing * dielectric matrix)
  average eigenvalue GAMMA=   1.6010
  3.2934  2.3675  0.8418  0.9671  0.9671  1.4909  1.2792

 Free energy of the ion-electron system (eV)
  ---------------------------------------------------
  alpha Z        PSCENC =      1727.30532944
  Ewald energy   TEWEN  =    -27261.25535038
  -Hartree energ DENC   =    -10849.68831989
  -exchange      EXHF   =         0.00000000
  -V(xc)+E(xc)   XCENC  =      1524.63551594
  PAW double counting   =     48924.66426653   -48254.54898617
  entropy T*S    EENTRO =         0.00000000
  eigenvalues    EBANDS =     -3570.50940408
  atomic energy  EATOM  =     37080.84622879
  Solvation  Ediel_sol  =         0.00000000
  ---------------------------------------------------
  free energy    TOTEN  =      -678.55071983 eV

  energy without entropy =     -678.55071983  energy(sigma->0) =     -678.55071983


--------------------------------------------------------------------------------------------------------




--------------------------------------- Iteration      1(  13)  ---------------------------------------


    POTLOK:  cpu time    0.0476: real time    0.0577
    SETDIJ:  cpu time    0.0100: real time    0.0103
    EDDIAG:  cpu time    3.9429: real time    3.9424
  RMM-DIIS:  cpu time   19.6030: real time   19.5995
    ORTHCH:  cpu time    0.5430: real time    0.5429
 BZINTS: Fermi energy:  3.343515;464.000000 electrons
         Band energy:***********;  BLOECHL correction:  0.000000
       DOS:  cpu time    0.0084: real time    0.0084
    CHARGE:  cpu time    0.9925: real time    0.9924
    MIXING:  cpu time    0.0015: real time    0.0015
    --------------------------------------------
      LOOP:  cpu time   25.1489: real time   25.1552

 eigenvalue-minimisations  : 34761
 total energy-change (2. order) :-0.1076307E-02  (-0.1462244E-02)
 number of electron     464.0000027 magnetization 
 augmentation part       44.9741198 magnetization 

 Broyden mixing:
  rms(total) = 0.81472E-02    rms(broyden)= 0.81438E-02
  rms(prec ) = 0.89718E-02
  weight for this iteration     100.00

 eigenvalues of (default mixing * dielectric matrix)
  average eigenvalue GAMMA=   1.7079
  3.9619  2.4333  1.7872  1.7872  0.9465  0.9465  0.9001  0.9001

 Free energy of the ion-electron system (eV)
  ---------------------------------------------------
  alpha Z        PSCENC =      1727.30532944
  Ewald energy   TEWEN  =    -27261.25535038
  -Hartree energ DENC   =    -10849.30598669
  -exchange      EXHF   =         0.00000000
  -V(xc)+E(xc)   XCENC  =      1524.58045851
  PAW double counting   =     48912.71612263   -48241.66042165
  entropy T*S    EENTRO =         0.00000000
  eigenvalues    EBANDS =     -3571.77817679
  atomic energy  EATOM  =     37080.84622879
  Solvation  Ediel_sol  =         0.00000000
  ---------------------------------------------------
  free energy    TOTEN  =      -678.55179614 eV

  energy without entropy =     -678.55179614  energy(sigma->0) =     -678.55179614


--------------------------------------------------------------------------------------------------------




--------------------------------------- Iteration      1(  14)  ---------------------------------------


    POTLOK:  cpu time    0.0507: real time    0.0651
    SETDIJ:  cpu time    0.0102: real time    0.0104
    EDDIAG:  cpu time    3.9356: real time    3.9350
  RMM-DIIS:  cpu time   19.6999: real time   19.6973
    ORTHCH:  cpu time    0.5426: real time    0.5425
 BZINTS: Fermi energy:  3.331639;464.000000 electrons
         Band energy:***********;  BLOECHL correction:  0.000000
       DOS:  cpu time    0.0085: real time    0.0085
    CHARGE:  cpu time    0.9928: real time    0.9927
    MIXING:  cpu time    0.0015: real time    0.0015
    --------------------------------------------
      LOOP:  cpu time   25.2417: real time   25.2531

 eigenvalue-minimisations  : 34722
 total energy-change (2. order) :-0.4705738E-03  (-0.5328399E-03)
 number of electron     464.0000027 magnetization 
 augmentation part       44.9580802 magnetization 

 Broyden mixing:
  rms(total) = 0.29903E-02    rms(broyden)= 0.29859E-02
  rms(prec ) = 0.32112E-02
  weight for this iteration     100.00

 eigenvalues of (default mixing * dielectric matrix)
  average eigenvalue GAMMA=   1.7109
  4.3592  2.4965  2.1744  1.6333  0.9438  0.9438  0.8673  0.9901  0.9901

 Free energy of the ion-electron system (eV)
  ---------------------------------------------------
  alpha Z        PSCENC =      1727.30532944
  Ewald energy   TEWEN  =    -27261.25535038
  -Hartree energ DENC   =    -10850.17739997
  -exchange      EXHF   =         0.00000000
  -V(xc)+E(xc)   XCENC  =      1524.62215493
  PAW double counting   =     48924.44134469   -48252.70365547
  entropy T*S    EENTRO =         0.00000000
  eigenvalues    EBANDS =     -3571.63091873
  atomic energy  EATOM  =     37080.84622879
  Solvation  Ediel_sol  =         0.00000000
  ---------------------------------------------------
  free energy    TOTEN  =      -678.55226671 eV

  energy without entropy =     -678.55226671  energy(sigma->0) =     -678.55226671


--------------------------------------------------------------------------------------------------------




--------------------------------------- Iteration      1(  15)  ---------------------------------------


    POTLOK:  cpu time    0.0491: real time    0.0643
    SETDIJ:  cpu time    0.0103: real time    0.0107
    EDDIAG:  cpu time    3.9424: real time    3.9419
WARNING in EDDRMM: call to ZHEGV failed, returncode =   8  4      2
WARNING in EDDRMM: call to ZHEGV failed, returncode =   6  3      4
  RMM-DIIS:  cpu time   19.4862: real time   19.4829
    ORTHCH:  cpu time    0.5442: real time    0.5441
 BZINTS: Fermi energy:  3.319819;464.000000 electrons
         Band energy:***********;  BLOECHL correction:  0.000000
       DOS:  cpu time    0.0085: real time    0.0085
    CHARGE:  cpu time    0.9958: real time    0.9957
    MIXING:  cpu time    0.0015: real time    0.0015
    --------------------------------------------
      LOOP:  cpu time   25.0381: real time   25.0496

 eigenvalue-minimisations  : 34620
 total energy-change (2. order) :-0.1943188E-03  (-0.2035317E-03)
 number of electron     464.0000027 magnetization 
 augmentation part       44.9495685 magnetization 

 Broyden mixing:
  rms(total) = 0.14495E-02    rms(broyden)= 0.14474E-02
  rms(prec ) = 0.16304E-02
  weight for this iteration     100.00

 eigenvalues of (default mixing * dielectric matrix)
  average eigenvalue GAMMA=   1.6915
  4.7596  2.5616  2.1982  1.6246  1.1401  1.1401  0.9480  0.9480  0.8566  0.7382

 Free energy of the ion-electron system (eV)
  ---------------------------------------------------
  alpha Z        PSCENC =      1727.30532944
  Ewald energy   TEWEN  =    -27261.25535038
  -Hartree energ DENC   =    -10850.31418059
  -exchange      EXHF   =         0.00000000
  -V(xc)+E(xc)   XCENC  =      1524.62656878
  PAW double counting   =     48931.17435737   -48259.20662259
  entropy T*S    EENTRO =         0.00000000
  eigenvalues    EBANDS =     -3571.72879185
  atomic energy  EATOM  =     37080.84622879
  Solvation  Ediel_sol  =         0.00000000
  ---------------------------------------------------
  free energy    TOTEN  =      -678.55246103 eV

  energy without entropy =     -678.55246103  energy(sigma->0) =     -678.55246103


--------------------------------------------------------------------------------------------------------




--------------------------------------- Iteration      1(  16)  ---------------------------------------


    POTLOK:  cpu time    0.0469: real time    0.0627
    SETDIJ:  cpu time    0.0100: real time    0.0099
    EDDIAG:  cpu time    3.9292: real time    3.9285
  RMM-DIIS:  cpu time   18.8243: real time   18.8215
    ORTHCH:  cpu time    0.5402: real time    0.5401
 BZINTS: Fermi energy:  3.307868;464.000000 electrons
         Band energy:***********;  BLOECHL correction:  0.000000
       DOS:  cpu time    0.0085: real time    0.0085
    CHARGE:  cpu time    0.9926: real time    0.9924
    MIXING:  cpu time    0.0016: real time    0.0016
    --------------------------------------------
      LOOP:  cpu time   24.3533: real time   24.3653

 eigenvalue-minimisations  : 34077
 total energy-change (2. order) :-0.6950529E-04  (-0.7186668E-04)
 number of electron     464.0000027 magnetization 
 augmentation part       44.9443726 magnetization 

 Broyden mixing:
  rms(total) = 0.96697E-03    rms(broyden)= 0.96521E-03
  rms(prec ) = 0.10812E-02
  weight for this iteration     100.00

 eigenvalues of (default mixing * dielectric matrix)
  average eigenvalue GAMMA=   1.7846
  5.6878  2.6963  2.3602  1.5757  1.5757  1.2155  0.9422  0.9422  0.9119  0.9119
  0.8115

 Free energy of the ion-electron system (eV)
  ---------------------------------------------------
  alpha Z        PSCENC =      1727.30532944
  Ewald energy   TEWEN  =    -27261.25535038
  -Hartree energ DENC   =    -10850.40440965
  -exchange      EXHF   =         0.00000000
  -V(xc)+E(xc)   XCENC  =      1524.62829543
  PAW double counting   =     48934.47575421   -48262.35887952
  entropy T*S    EENTRO =         0.00000000
  eigenvalues    EBANDS =     -3571.78949885
  atomic energy  EATOM  =     37080.84622879
  Solvation  Ediel_sol  =         0.00000000
  ---------------------------------------------------
  free energy    TOTEN  =      -678.55253054 eV

  energy without entropy =     -678.55253054  energy(sigma->0) =     -678.55253054


--------------------------------------------------------------------------------------------------------




--------------------------------------- Iteration      1(  17)  ---------------------------------------


    POTLOK:  cpu time    0.0533: real time    0.0659
    SETDIJ:  cpu time    0.0102: real time    0.0105
    EDDIAG:  cpu time    3.9400: real time    3.9394
  RMM-DIIS:  cpu time   19.2480: real time   19.2457
    ORTHCH:  cpu time    0.5413: real time    0.5413
 BZINTS: Fermi energy:  3.296268;464.000000 electrons
         Band energy:***********;  BLOECHL correction:  0.000000
       DOS:  cpu time    0.0085: real time    0.0085
    CHARGE:  cpu time    0.9839: real time    0.9837
    MIXING:  cpu time    0.0016: real time    0.0016
    --------------------------------------------
      LOOP:  cpu time   24.7868: real time   24.7966

 eigenvalue-minimisations  : 33675
 total energy-change (2. order) :-0.3270536E-04  (-0.2940752E-04)
 number of electron     464.0000027 magnetization 
 augmentation part       44.9411819 magnetization 

 Broyden mixing:
  rms(total) = 0.83861E-03    rms(broyden)= 0.83819E-03
  rms(prec ) = 0.95606E-03
  weight for this iteration     100.00

 eigenvalues of (default mixing * dielectric matrix)
  average eigenvalue GAMMA=   1.6867
  4.9115  2.8222  2.3680  1.8842  1.6301  1.2794  0.9440  0.9440  0.9385  0.9385
  0.8400  0.7400

 Free energy of the ion-electron system (eV)
  ---------------------------------------------------
  alpha Z        PSCENC =      1727.30532944
  Ewald energy   TEWEN  =    -27261.25535038
  -Hartree energ DENC   =    -10850.56980283
  -exchange      EXHF   =         0.00000000
  -V(xc)+E(xc)   XCENC  =      1524.63589803
  PAW double counting   =     48939.12097058   -48266.83319170
  entropy T*S    EENTRO =         0.00000000
  eigenvalues    EBANDS =     -3571.80264518
  atomic energy  EATOM  =     37080.84622879
  Solvation  Ediel_sol  =         0.00000000
  ---------------------------------------------------
  free energy    TOTEN  =      -678.55256324 eV

  energy without entropy =     -678.55256324  energy(sigma->0) =     -678.55256324


--------------------------------------------------------------------------------------------------------




--------------------------------------- Iteration      1(  18)  ---------------------------------------


    POTLOK:  cpu time    0.0484: real time    0.0624
    SETDIJ:  cpu time    0.0100: real time    0.0103
    EDDIAG:  cpu time    3.9321: real time    3.9315
  RMM-DIIS:  cpu time   18.1113: real time   18.1082
    ORTHCH:  cpu time    0.5409: real time    0.5408
 BZINTS: Fermi energy:  3.284265;464.000000 electrons
         Band energy:***********;  BLOECHL correction:  0.000000
       DOS:  cpu time    0.0084: real time    0.0084
    CHARGE:  cpu time    0.9864: real time    0.9862
    MIXING:  cpu time    0.0017: real time    0.0017
    --------------------------------------------
      LOOP:  cpu time   23.6392: real time   23.6496

 eigenvalue-minimisations  : 30862
 total energy-change (2. order) :-0.8192699E-05  (-0.1204435E-04)
 number of electron     464.0000027 magnetization 
 augmentation part       44.9387359 magnetization 

 Broyden mixing:
  rms(total) = 0.15348E-02    rms(broyden)= 0.15347E-02
  rms(prec ) = 0.17564E-02
  weight for this iteration     100.00

 eigenvalues of (default mixing * dielectric matrix)
[...]


--------------------------------------------------------------------------------------------------------


    POTLOK:  cpu time    0.0556: real time    0.0559


--------------------------------------------------------------------------------------------------------


 Quasi-Newton relaxation of ions (Broydens 2nd method)
  g(Force)  = 0.285E-04   g(Stress)= 0.317E-06

 retain information from N=  1 steps
 eigenvalues of (default step * inverse Hessian matrix)
  average eigenvalue of G=   3.4195
 eigenvalue spectrum of G is  3.4195


--------------------------------------------------------------------------------------------------------


    WAVPRE:  cpu time    0.0234: real time    0.0260
    FEWALD:  cpu time    0.0021: real time    0.0025
    GENKIN:  cpu time    0.2007: real time    0.2007
    ORTHCH:  cpu time    2.9625: real time    2.9622
     LOOP+:  cpu time  144.7095: real time  144.7796


--------------------------------------- Iteration     21(   1)  ---------------------------------------


    POTLOK:  cpu time    0.0676: real time    0.0700
    SETDIJ:  cpu time    0.0100: real time    0.0100
     EDDAV:  cpu time   31.2420: real time   31.2377
 BZINTS: Fermi energy:  3.293904;464.000000 electrons
         Band energy:***********;  BLOECHL correction:  0.000000
       DOS:  cpu time    0.0109: real time    0.0109
    CHARGE:  cpu time    0.9727: real time    0.9726
    MIXING:  cpu time    0.0009: real time    0.0009
    --------------------------------------------
      LOOP:  cpu time   32.3041: real time   32.3021

 eigenvalue-minimisations  : 24768
 total energy-change (2. order) :-0.6010452E-04  (-0.3156748E-02)
 number of electron     464.0000072 magnetization 
 augmentation part       44.9359098 magnetization 

  free energy =  -0.679283621697E+03  energy without entropy=  -0.679283621697E+03


--------------------------------------------------------------------------------------------------------




--------------------------------------- Iteration     21(   2)  ---------------------------------------


    POTLOK:  cpu time    0.0458: real time    0.0561
    SETDIJ:  cpu time    0.0101: real time    0.0101
    EDDIAG:  cpu time    3.9286: real time    3.9280
  RMM-DIIS:  cpu time   12.9389: real time   12.9375
    ORTHCH:  cpu time    0.5379: real time    0.5379
 BZINTS: Fermi energy:  3.293772;464.000000 electrons
         Band energy:***********;  BLOECHL correction:  0.000000
       DOS:  cpu time    0.0099: real time    0.0099
    CHARGE:  cpu time    0.9716: real time    0.9714
    MIXING:  cpu time    0.0010: real time    0.0010
    --------------------------------------------
      LOOP:  cpu time   18.4438: real time   18.4520

 eigenvalue-minimisations  : 22738
 total energy-change (2. order) :-0.5014455E-04  (-0.5859296E-04)
 number of electron     464.0000072 magnetization 
 augmentation part       44.9361912 magnetization 

 eigenvalues of (default mixing * dielectric matrix)
  average eigenvalue GAMMA=   0.9526
  0.9526

  free energy =  -0.679283671842E+03  energy without entropy=  -0.679283671842E+03


--------------------------------------------------------------------------------------------------------




--------------------------------------- Iteration     21(   3)  ---------------------------------------


    POTLOK:  cpu time    0.0459: real time    0.0601
    SETDIJ:  cpu time    0.0098: real time    0.0098
    EDDIAG:  cpu time    3.9249: real time    3.9252
  RMM-DIIS:  cpu time   15.3383: real time   15.3404
    ORTHCH:  cpu time    0.5370: real time    0.5372
 BZINTS: Fermi energy:  3.293683;464.000000 electrons
         Band energy:***********;  BLOECHL correction:  0.000000
       DOS:  cpu time    0.0100: real time    0.0100
    CHARGE:  cpu time    0.9742: real time    0.9743
    MIXING:  cpu time    0.0011: real time    0.0011
    --------------------------------------------
      LOOP:  cpu time   20.8411: real time   20.8581

 eigenvalue-minimisations  : 23928
 total energy-change (2. order) : 0.6851893E-05  (-0.3179906E-05)
 number of electron     464.0000072 magnetization 
 augmentation part       44.9362317 magnetization 

 eigenvalues of (default mixing * dielectric matrix)
  average eigenvalue GAMMA=   1.2091
  1.2091  1.2091

  free energy =  -0.679283664990E+03  energy without entropy=  -0.679283664990E+03


--------------------------------------------------------------------------------------------------------




--------------------------------------- Iteration     21(   4)  ---------------------------------------


    POTLOK:  cpu time    0.0460: real time    0.0624
    SETDIJ:  cpu time    0.0100: real time    0.0104
    EDDIAG:  cpu time    3.9435: real time    3.9445
  RMM-DIIS:  cpu time   14.8198: real time   14.8222
    ORTHCH:  cpu time    0.5367: real time    0.5367
 BZINTS: Fermi energy:  3.293620;464.000000 electrons
         Band energy:***********;  BLOECHL correction:  0.000000
       DOS:  cpu time    0.0099: real time    0.0099
    CHARGE:  cpu time    0.9739: real time    0.9741
    MIXING:  cpu time    0.0011: real time    0.0011
    --------------------------------------------
      LOOP:  cpu time   20.3410: real time   20.3612

 eigenvalue-minimisations  : 23136
 total energy-change (2. order) : 0.1410444E-05  (-0.9179789E-06)
 number of electron     464.0000072 magnetization 
 augmentation part       44.9363128 magnetization 

 eigenvalues of (default mixing * dielectric matrix)
  average eigenvalue GAMMA=   1.3736
  2.0021  1.0594  1.0594

  free energy =  -0.679283663579E+03  energy without entropy=  -0.679283663579E+03


--------------------------------------------------------------------------------------------------------




--------------------------------------- Iteration     21(   5)  ---------------------------------------


    POTLOK:  cpu time    0.0467: real time    0.0611
    SETDIJ:  cpu time    0.0099: real time    0.0099
    EDDIAG:  cpu time    3.9269: real time    3.9274
  RMM-DIIS:  cpu time    8.1781: real time    8.1793
    ORTHCH:  cpu time    0.5362: real time    0.5361
 BZINTS: Fermi energy:  3.293604;464.000000 electrons
         Band energy:***********;  BLOECHL correction:  0.000000
       DOS:  cpu time    0.0099: real time    0.0099
    --------------------------------------------
      LOOP:  cpu time   12.7077: real time   12.7238

 eigenvalue-minimisations  : 12468
 total energy-change (2. order) : 0.1161607E-06  (-0.1035500E-06)
 number of electron     464.0000072 magnetization 
 augmentation part       44.9363128 magnetization 

  free energy =  -0.679283663463E+03  energy without entropy=  -0.679283663463E+03


--------------------------------------------------------------------------------------------------------




------------------------ aborting loop because EDIFF is reached ----------------------------------------


    CHARGE:  cpu time    0.9738: real time    0.9739
    FORLOC:  cpu time    0.0159: real time    0.0159
    FORNL :  cpu time    7.5264: real time    7.5276
    STRESS:  cpu time   22.6668: real time   22.6694
    FORCOR:  cpu time    0.0488: real time    0.0488
    FORHAR:  cpu time    0.0227: real time    0.0227
    MIXING:  cpu time    0.0011: real time    0.0011
    OFIELD:  cpu time    0.0000: real time    0.0000

  FORCE on cell =-STRESS in cart. coord.  units (eV):
  Direction    XX          YY          ZZ          XY          YZ          ZX
  --------------------------------------------------------------------------------------
  Alpha Z  1727.30533  1727.30533  1727.30533
  Ewald   -9085.98689 -9013.55733 -9413.72250    48.49846   -37.05251    95.37476
  Hartree  3489.56710  3559.27337  3543.23201    41.79487   -35.32642    86.55869
  E(xc)   -2196.12154 -2196.15556 -2193.36227     0.07077    -0.01441    -0.00699
  Local   -2401.64522 -2543.66411 -2140.53071   -90.52666    72.40423  -182.08177
  n-local -1204.47350 -1204.28324 -1195.37232    -0.46586     0.04367    -0.10135
  augment   514.67879   514.64170   511.13181     0.07031    -0.00664     0.00884
  Kinetic  9192.06853  9191.83129  9196.78883     0.55212    -0.04675     0.24654
  Fock        0.00000     0.00000     0.00000     0.00000     0.00000     0.00000
  -------------------------------------------------------------------------------------
  Total      35.39260    35.39144    35.47019    -0.00598     0.00117    -0.00128
  in kB      71.18058    71.17824    71.33662    -0.01204     0.00236    -0.00256
  external pressure =       71.23 kB  Pullay stress =        0.00 kB



--------------------------------------------------------------------------------------------------------



  FREE ENERGIE OF THE ION-ELECTRON SYSTEM (eV)
  ---------------------------------------------------
  free  energy   TOTEN  =      -679.28366346 eV

  energy  without entropy=     -679.28366346  energy(sigma->0) =     -679.28366346
 
 d Force = 0.1003692E-03[ 0.753E-04, 0.125E-03]  d Energy = 0.1024117E-03-0.204E-05
 d Force = 0.4620598E+00[ 0.462E+00, 0.462E+00]  d Ewald  = 0.4525173E+00 0.954E-02


--------------------------------------------------------------------------------------------------------


    POTLOK:  cpu time    0.0559: real time    0.0559


--------------------------------------------------------------------------------------------------------


 Quasi-Newton relaxation of ions (Broydens 2nd method)
  g(Force)  = 0.185E-04   g(Stress)= 0.751E-06

 retain information from N=  1 steps
 eigenvalues of (default step * inverse Hessian matrix)
  average eigenvalue of G=   5.4847
 eigenvalue spectrum of G is  5.4847


--------------------------------------------------------------------------------------------------------


    WAVPRE:  cpu time    0.0233: real time    0.0260
    FEWALD:  cpu time    0.0022: real time    0.0025
    GENKIN:  cpu time    0.2003: real time    0.2005
    ORTHCH:  cpu time    2.9623: real time    2.9626
     LOOP+:  cpu time  139.2126: real time  139.2999


--------------------------------------- Iteration     22(   1)  ---------------------------------------


    POTLOK:  cpu time    0.0631: real time    0.0658
    SETDIJ:  cpu time    0.0098: real time    0.0098
     EDDAV:  cpu time   29.7842: real time   29.7872
 BZINTS: Fermi energy:  3.292319;464.000000 electrons
         Band energy:***********;  BLOECHL correction:  0.000000
       DOS:  cpu time    0.0109: real time    0.0109
    CHARGE:  cpu time    0.9722: real time    0.9723
    MIXING:  cpu time    0.0010: real time    0.0010
    --------------------------------------------
      LOOP:  cpu time   30.8412: real time   30.8470

 eigenvalue-minimisations  : 23616
 total energy-change (2. order) :-0.9135583E-05  (-0.4474271E-02)
 number of electron     464.0000070 magnetization 
 augmentation part       44.9352726 magnetization 

  free energy =  -0.679283672715E+03  energy without entropy=  -0.679283672715E+03


--------------------------------------------------------------------------------------------------------




--------------------------------------- Iteration     22(   2)  ---------------------------------------


    POTLOK:  cpu time    0.0462: real time    0.0588
    SETDIJ:  cpu time    0.0099: real time    0.0099
    EDDIAG:  cpu time    3.9204: real time    3.9209
  RMM-DIIS:  cpu time   12.8736: real time   12.8735
    ORTHCH:  cpu time    0.5368: real time    0.5368
 BZINTS: Fermi energy:  3.292098;464.000000 electrons
         Band energy:***********;  BLOECHL correction:  0.000000
       DOS:  cpu time    0.0099: real time    0.0099
    CHARGE:  cpu time    0.9712: real time    0.9711
    MIXING:  cpu time    0.0010: real time    0.0010
    --------------------------------------------
      LOOP:  cpu time   18.3692: real time   18.3819

 eigenvalue-minimisations  : 22614
 total energy-change (2. order) :-0.6956387E-04  (-0.8300932E-04)
 number of electron     464.0000070 magnetization 
 augmentation part       44.9356657 magnetization 

 eigenvalues of (default mixing * dielectric matrix)
  average eigenvalue GAMMA=   0.9987
  0.9987

  free energy =  -0.679283742279E+03  energy without entropy=  -0.679283742279E+03


--------------------------------------------------------------------------------------------------------




--------------------------------------- Iteration     22(   3)  ---------------------------------------


    POTLOK:  cpu time    0.0462: real time    0.0602
    SETDIJ:  cpu time    0.0100: real time    0.0104
    EDDIAG:  cpu time    3.9171: real time    3.9166
  RMM-DIIS:  cpu time   15.5395: real time   15.5378
    ORTHCH:  cpu time    0.5372: real time    0.5371
 BZINTS: Fermi energy:  3.291972;464.000000 electrons
         Band energy:***********;  BLOECHL correction:  0.000000
       DOS:  cpu time    0.0099: real time    0.0099
    CHARGE:  cpu time    0.9726: real time    0.9724
    MIXING:  cpu time    0.0011: real time    0.0011
    --------------------------------------------
      LOOP:  cpu time   21.0337: real time   21.0455

 eigenvalue-minimisations  : 25274
 total energy-change (2. order) : 0.9213822E-05  (-0.4667817E-05)
 number of electron     464.0000070 magnetization 
 augmentation part       44.9358411 magnetization 

 eigenvalues of (default mixing * dielectric matrix)
  average eigenvalue GAMMA=   1.3222
  1.2631  1.3814

  free energy =  -0.679283733065E+03  energy without entropy=  -0.679283733065E+03


--------------------------------------------------------------------------------------------------------




--------------------------------------- Iteration     22(   4)  ---------------------------------------


    POTLOK:  cpu time    0.0460: real time    0.0609
    SETDIJ:  cpu time    0.0099: real time    0.0099
    EDDIAG:  cpu time    3.9310: real time    3.9304
  RMM-DIIS:  cpu time   14.8290: real time   14.8267
    ORTHCH:  cpu time    0.5361: real time    0.5360
 BZINTS: Fermi energy:  3.291886;464.000000 electrons
         Band energy:***********;  BLOECHL correction:  0.000000
       DOS:  cpu time    0.0099: real time    0.0099
    CHARGE:  cpu time    0.9720: real time    0.9718
    MIXING:  cpu time    0.0011: real time    0.0011
    --------------------------------------------
      LOOP:  cpu time   20.3350: real time   20.3467

 eigenvalue-minimisations  : 23618
 total energy-change (2. order) : 0.1984234E-05  (-0.1393234E-05)
 number of electron     464.0000070 magnetization 
 augmentation part       44.9359912 magnetization 

 eigenvalues of (default mixing * dielectric matrix)
  average eigenvalue GAMMA=   1.4069
  2.0832  1.0687  1.0687

  free energy =  -0.679283731081E+03  energy without entropy=  -0.679283731081E+03


--------------------------------------------------------------------------------------------------------




--------------------------------------- Iteration     22(   5)  ---------------------------------------


    POTLOK:  cpu time    0.0457: real time    0.0556
    SETDIJ:  cpu time    0.0099: real time    0.0099
    EDDIAG:  cpu time    3.9249: real time    3.9246
  RMM-DIIS:  cpu time    8.2135: real time    8.2128
    ORTHCH:  cpu time    0.5406: real time    0.5406
 BZINTS: Fermi energy:  3.291874;464.000000 electrons
         Band energy:***********;  BLOECHL correction:  0.000000
       DOS:  cpu time    0.0099: real time    0.0099
    --------------------------------------------
      LOOP:  cpu time   12.7446: real time   12.7535

 eigenvalue-minimisations  : 12539
 total energy-change (2. order) : 0.1381632E-06  (-0.1178536E-06)
 number of electron     464.0000070 magnetization 
 augmentation part       44.9359912 magnetization 

  free energy =  -0.679283730943E+03  energy without entropy=  -0.679283730943E+03


--------------------------------------------------------------------------------------------------------




------------------------ aborting loop because EDIFF is reached ----------------------------------------


    CHARGE:  cpu time    0.9721: real time    0.9720
    FORLOC:  cpu time    0.0159: real time    0.0159
    FORNL :  cpu time    7.5280: real time    7.5274
    STRESS:  cpu time   22.6720: real time   22.6701
    FORCOR:  cpu time    0.0490: real time    0.0490
    FORHAR:  cpu time    0.0226: real time    0.0226
    MIXING:  cpu time    0.0010: real time    0.0010
    OFIELD:  cpu time    0.0000: real time    0.0000

  FORCE on cell =-STRESS in cart. coord.  units (eV):
  Direction    XX          YY          ZZ          XY          YZ          ZX
  --------------------------------------------------------------------------------------
  Alpha Z  1727.30533  1727.30533  1727.30533
  Ewald   -9086.01922 -9013.58020 -9414.48377    48.45173   -37.03381    95.44396
  Hartree  3489.46468  3559.17523  3542.54646    41.75399   -35.31993    86.58650
  E(xc)   -2196.10884 -2196.14253 -2193.34797     0.07067    -0.01451    -0.00722
  Local   -2401.56658 -2543.59913 -2139.03981   -90.43554    72.37965  -182.17576
  n-local -1204.52120 -1204.33567 -1195.35897    -0.46356     0.04246    -0.09936
  augment   514.68557   514.64849   511.12473     0.07003    -0.00664     0.00876
  Kinetic  9192.06916  9191.83039  9196.65838     0.55089    -0.04633     0.24479
  Fock        0.00000     0.00000     0.00000     0.00000     0.00000     0.00000
  -------------------------------------------------------------------------------------
  Total      35.30890    35.30190    35.40437    -0.00180     0.00089     0.00167
  in kB      71.01224    70.99816    71.20425    -0.00363     0.00180     0.00335
  external pressure =       71.07 kB  Pullay stress =        0.00 kB



--------------------------------------------------------------------------------------------------------



  FREE ENERGIE OF THE ION-ELECTRON SYSTEM (eV)
  ---------------------------------------------------
  free  energy   TOTEN  =      -679.28373094 eV

  energy  without entropy=     -679.28373094  energy(sigma->0) =     -679.28373094
 
 d Force = 0.6484556E-04[ 0.319E-04, 0.978E-04]  d Energy = 0.6747940E-04-0.263E-05
 d Force = 0.8320004E+00[ 0.832E+00, 0.832E+00]  d Ewald  = 0.8164749E+00 0.155E-01


--------------------------------------------------------------------------------------------------------


    POTLOK:  cpu time    0.0552: real time    0.0552


--------------------------------------------------------------------------------------------------------


 Quasi-Newton relaxation of ions (Broydens 2nd method)
  g(Force)  = 0.925E-05   g(Stress)= 0.119E-05

 retain information from N=  1 steps
 eigenvalues of (default step * inverse Hessian matrix)
  average eigenvalue of G=   9.3473
 eigenvalue spectrum of G is  9.3473


--------------------------------------------------------------------------------------------------------


  
 reached required accuracy - stopping structural energy minimisation
     LOOP+:  cpu time  134.7080: real time  134.7799
    4ORBIT:  cpu time    0.0000: real time    0.0000

 total amount of memory used by VASP MPI-rank0   179224. kBytes
=======================================================================

   base      :      30000. kBytes
   nonlr-proj:      72119. kBytes
   fftplans  :       4575. kBytes
   grid      :      26165. kBytes
   one-center:       1244. kBytes
   wavefun   :      45121. kBytes
 
  
  
 General timing and accounting informations for this job:
 ========================================================
  
                  Total CPU time used (sec):     5597.816
                            User time (sec):     5585.163
                          System time (sec):       12.653
                         Elapsed time (sec):     5601.324
  
                   Maximum memory used (kb):      425980.
                   Average memory used (kb):           0.
  
                          Minor page faults:      3162788
                          Major page faults:            0
                 Voluntary context switches:        62154
