<?xml version="1.0" encoding="ISO-8859-1"?>
<modeling>
 <generator>
  <i name="program" type="string">vasp </i>
  <i name="version" type="string">5.4.4.18Apr17-6-g9f103f2a35  </i>
  <i name="subversion" type="string">(build Mar 05 2020 17:21:05) complex            parallel </i>
  <i name="platform" type="string">Linux justhpc1_p2018-05-16 </i>
  <i name="date" type="string">2024 04 10 </i>
  <i name="time" type="string">19:41:16 </i>
 </generator>
 <incar>
  <i type="string" name="SYSTEM"> Li(NbTa)O_3</i>
  <i type="int" name="ISTART">     0</i>
  <i type="string" name="PREC">accurate</i>
  <i type="string" name="ALGO">  Fast</i>
  <i name="AMIX">      0.40000000</i>
  <i name="AMIN">      0.10000000</i>
  <i type="int" name="ICHARG">     2</i>
  <i type="int" name="INIWAV">     1</i>
  <i type="int" name="NELM">  1000</i>
  <i type="int" name="NELMIN">     4</i>
  <i type="int" name="IBRION">     1</i>
  <i name="EDIFF">      0.00000100</i>
  <i name="EDIFFG">     -0.00500000</i>
  <i type="int" name="NSW">   200</i>
  <i type="int" name="ISIF">     4</i>
  <i name="ENCUT">    475.00000000</i>
  <i name="POTIM">      0.15000000</i>
  <i type="string" name="LREAL">    A</i>
  <i type="int" name="ISMEAR">    -5</i>
  <i name="SIGMA">      0.05000000</i>
  <i type="int" name="NWRITE">     0</i>
  <i type="logical" name="LWAVE"> F  </i>
  <i type="logical" name="LCHARG"> F  </i>
  <i type="logical" name="LVTOT"> F  </i>
  <i type="logical" name="LVHAR"> F  </i>
  <i type="logical" name="LELF"> F  </i>
  <v type="int" name="KPOINT_BSE">    -1     0     0     0</v>
  <i type="int" name="NELM">  1000</i>
  <i type="string" name="GGA"> PS</i>
 </incar>
 <structure name="primitive_cell" >
  <crystal>
   <varray name="basis" >
    <v>       5.04654780      -2.91206231       9.03562475 </v>
    <v>       0.00242297       5.82567956       9.03477949 </v>
    <v>      -5.04399348      -2.91338537       9.03377877 </v>
   </varray>
   <i name="volume">    796.63906048 </i>
   <varray name="rec_basis" >
    <v>       0.09910347      -0.05723201       0.03687696 </v>
    <v>      -0.00002175       0.11443706       0.03689370 </v>
    <v>      -0.09910196      -0.05720602       0.03691336 </v>
   </varray>
  </crystal>
  <varray name="positions" >
   <v>       0.13834752       0.13936271       0.13984335 </v>
   <v>       0.30515946       0.11079423      -0.06809337 </v>
   <v>       0.11018018      -0.06879723       0.30647725 </v>
   <v>      -0.06905013       0.30643726       0.10970186 </v>
   <v>       0.05623360       0.18120304       0.36059596 </v>
   <v>       0.18067803       0.36043515       0.05635112 </v>
   <v>       0.36055215       0.05618073       0.18135900 </v>
   <v>       0.24862253       0.24992729       0.24762435 </v>
   <v>      -0.00061676       0.00003493       0.49763958 </v>
   <v>      -0.00250010       0.49794372       0.00086033 </v>
   <v>       0.49988249      -0.00261528       0.00090131 </v>
   <v>      -0.19337261       0.10979363       0.43135599 </v>
   <v>       0.43096027      -0.19329050       0.10983535 </v>
   <v>       0.11066152       0.43074915      -0.19460356 </v>
   <v>       0.25168038       0.24891337      -0.25040483 </v>
   <v>      -0.25269028       0.24776208       0.24918815 </v>
   <v>       0.24806756      -0.25193469       0.24849505 </v>
   <v>      -0.13900432       0.05588109       0.18065345 </v>
   <v>       0.18040413      -0.13909628       0.05629587 </v>
   <v>       0.05540035       0.18155956      -0.13965962 </v>
   <v>      -0.10895576       0.39188824      -0.11006009 </v>
   <v>       0.39066873      -0.10877522      -0.10982588 </v>
   <v>      -0.11047756      -0.10980384       0.39154151 </v>
   <v>       0.38998511      -0.10977024       0.39046082 </v>
   <v>      -0.10918121       0.39199278       0.39127564 </v>
   <v>       0.39173469       0.39088444      -0.10940012 </v>
   <v>      -0.00040763       0.00150112      -0.00324828 </v>
   <v>      -0.13992542      -0.44365171       0.18046819 </v>
   <v>       0.18050111      -0.13926661      -0.44374241 </v>
   <v>      -0.44374507       0.18016866      -0.13917796 </v>
   <v>       0.10933811       0.43208088       0.30572184 </v>
   <v>       0.30616879       0.11038237       0.43144631 </v>
   <v>       0.43164615       0.30579781       0.11007695 </v>
   <v>      -0.06861027      -0.19460936      -0.38915746 </v>
   <v>      -0.19415364      -0.38916703      -0.06990609 </v>
   <v>      -0.38975637      -0.06865989      -0.19428568 </v>
   <v>       0.35943918       0.05639020      -0.31796545 </v>
   <v>      -0.31905839       0.36072792       0.05606070 </v>
   <v>       0.05604537      -0.31923144       0.36081137 </v>
   <v>      -0.38984081       0.43137998       0.30635721 </v>
   <v>       0.43176800       0.30520898      -0.38895871 </v>
   <v>       0.30631393      -0.39036548       0.43142758 </v>
   <v>      -0.13939540       0.05601788      -0.31945939 </v>
   <v>       0.05642617      -0.32016891      -0.13927708 </v>
   <v>      -0.31892800      -0.13953226       0.05575260 </v>
   <v>      -0.44445923      -0.31816567       0.36007734 </v>
   <v>      -0.31943661       0.36084158      -0.44373941 </v>
   <v>       0.36082901      -0.44378709      -0.31960064 </v>
   <v>      -0.35955392       0.13979598      -0.36104116 </v>
   <v>      -0.36012932      -0.35949036       0.14005521 </v>
   <v>       0.14027342      -0.36143308      -0.36057710 </v>
   <v>      -0.44331040       0.18089021       0.36049958 </v>
   <v>       0.36061507      -0.44381848       0.18081868 </v>
   <v>       0.18159346       0.36067916      -0.44443328 </v>
   <v>      -0.06871227       0.30623948      -0.39020555 </v>
   <v>       0.30592914      -0.39026941      -0.06842438 </v>
   <v>      -0.38932248      -0.06834703       0.30547765 </v>
   <v>       0.14028321       0.14032414      -0.35907876 </v>
   <v>      -0.36031050       0.14081636       0.13851063 </v>
   <v>       0.14005761      -0.36085585       0.13990376 </v>
   <v>      -0.19376884       0.10929440      -0.06852055 </v>
   <v>       0.10974163      -0.06923313      -0.19337096 </v>
   <v>      -0.06863886      -0.19507418       0.11095065 </v>
   <v>      -0.31902069      -0.14027494      -0.44344507 </v>
   <v>      -0.13940492      -0.44418373      -0.31949283 </v>
   <v>      -0.44443032      -0.31917978      -0.13909459 </v>
   <v>      -0.19496216      -0.38925698       0.43111591 </v>
   <v>       0.43105925      -0.19361902      -0.39007314 </v>
   <v>      -0.38991387       0.43101265      -0.19363503 </v>
   <v>       0.24752603      -0.25254119      -0.25065840 </v>
   <v>      -0.25165012       0.24827406      -0.25167126 </v>
   <v>       0.49985523      -0.49870242       0.49655071 </v>
   <v>      -0.24902685      -0.25057531       0.24984287 </v>
   <v>       0.49682629      -0.00232810      -0.49984566 </v>
   <v>       0.00052440       0.49715140      -0.49911933 </v>
   <v>       0.49954620      -0.49996032      -0.00214243 </v>
   <v>      -0.25059786      -0.24904122      -0.25197652 </v>
   <v>       0.39146324       0.38999630       0.39085144 </v>
   <v>      -0.10896892      -0.10923924      -0.10865368 </v>
   <v>      -0.35904566      -0.35991442      -0.35855301 </v>
  </varray>
 </structure>
 <varray name="primitive_index" >
  <v type="int" >        1 </v>
  <v type="int" >       38 </v>
  <v type="int" >       43 </v>
  <v type="int" >       54 </v>
  <v type="int" >       27 </v>
  <v type="int" >       29 </v>
  <v type="int" >       28 </v>
  <v type="int" >       75 </v>
  <v type="int" >       18 </v>
  <v type="int" >       20 </v>
  <v type="int" >       22 </v>
  <v type="int" >       56 </v>
  <v type="int" >       42 </v>
  <v type="int" >       37 </v>
  <v type="int" >       19 </v>
  <v type="int" >       78 </v>
  <v type="int" >       76 </v>
  <v type="int" >       52 </v>
  <v type="int" >       41 </v>
  <v type="int" >       33 </v>
  <v type="int" >       12 </v>
  <v type="int" >        8 </v>
  <v type="int" >       14 </v>
  <v type="int" >        6 </v>
  <v type="int" >       10 </v>
  <v type="int" >        4 </v>
  <v type="int" >       17 </v>
  <v type="int" >       64 </v>
  <v type="int" >       47 </v>
  <v type="int" >       57 </v>
  <v type="int" >       31 </v>
  <v type="int" >       32 </v>
  <v type="int" >       30 </v>
  <v type="int" >       72 </v>
  <v type="int" >       74 </v>
  <v type="int" >       73 </v>
  <v type="int" >       34 </v>
  <v type="int" >       53 </v>
  <v type="int" >       39 </v>
  <v type="int" >       55 </v>
  <v type="int" >       36 </v>
  <v type="int" >       44 </v>
  <v type="int" >       58 </v>
  <v type="int" >       45 </v>
  <v type="int" >       65 </v>
  <v type="int" >       63 </v>
  <v type="int" >       59 </v>
  <v type="int" >       46 </v>
  <v type="int" >       11 </v>
  <v type="int" >       13 </v>
  <v type="int" >        7 </v>
  <v type="int" >       51 </v>
  <v type="int" >       40 </v>
  <v type="int" >       35 </v>
  <v type="int" >       60 </v>
  <v type="int" >       50 </v>
  <v type="int" >       67 </v>
  <v type="int" >        3 </v>
  <v type="int" >        9 </v>
  <v type="int" >        5 </v>
  <v type="int" >       62 </v>
  <v type="int" >       49 </v>
  <v type="int" >       66 </v>
  <v type="int" >       71 </v>
  <v type="int" >       70 </v>
  <v type="int" >       69 </v>
  <v type="int" >       68 </v>
  <v type="int" >       48 </v>
  <v type="int" >       61 </v>
  <v type="int" >       77 </v>
  <v type="int" >       80 </v>
  <v type="int" >       25 </v>
  <v type="int" >       24 </v>
  <v type="int" >       79 </v>
  <v type="int" >       21 </v>
  <v type="int" >       23 </v>
  <v type="int" >       26 </v>
  <v type="int" >        2 </v>
  <v type="int" >       16 </v>
  <v type="int" >       15 </v>
 </varray>
 <kpoints>
  <generation param="Gamma">
   <v type="int" name="divisions">       4        4        4 </v>
   <v name="usershift">      0.00000000       0.00000000       0.00000000 </v>
   <v name="genvec1">      0.25000000      -0.00000000       0.00000000 </v>
   <v name="genvec2">     -0.00000000       0.25000000      -0.00000000 </v>
   <v name="genvec3">      0.00000000       0.00000000       0.25000000 </v>
   <v name="shift">      0.00000000       0.00000000       0.00000000 </v>
  </generation>
  <varray name="kpointlist" >
   <v>       0.00000000       0.00000000       0.00000000 </v>
   <v>       0.25000000      -0.00000000       0.00000000 </v>
   <v>       0.50000000      -0.00000000       0.00000000 </v>
   <v>       0.00000000       0.25000000      -0.00000000 </v>
   <v>       0.25000000       0.25000000      -0.00000000 </v>
   <v>       0.50000000       0.25000000      -0.00000000 </v>
   <v>      -0.25000000       0.25000000       0.00000000 </v>
   <v>       0.00000000       0.50000000      -0.00000000 </v>
   <v>       0.25000000       0.50000000      -0.00000000 </v>
   <v>       0.50000000       0.50000000      -0.00000000 </v>
   <v>       0.00000000       0.00000000       0.25000000 </v>
   <v>       0.25000000      -0.00000000       0.25000000 </v>
   <v>       0.50000000      -0.00000000       0.25000000 </v>
   <v>      -0.25000000       0.00000000       0.25000000 </v>
   <v>       0.00000000       0.25000000       0.25000000 </v>
   <v>       0.25000000       0.25000000       0.25000000 </v>
   <v>       0.50000000       0.25000000       0.25000000 </v>
   <v>      -0.25000000       0.25000000       0.25000000 </v>
   <v>       0.00000000       0.50000000       0.25000000 </v>
   <v>       0.25000000       0.50000000       0.25000000 </v>
   <v>       0.50000000       0.50000000       0.25000000 </v>
   <v>      -0.25000000       0.50000000       0.25000000 </v>
   <v>       0.00000000      -0.25000000       0.25000000 </v>
   <v>       0.25000000      -0.25000000       0.25000000 </v>
   <v>       0.50000000      -0.25000000       0.25000000 </v>
   <v>      -0.25000000      -0.25000000       0.25000000 </v>
   <v>       0.00000000       0.00000000       0.50000000 </v>
   <v>       0.25000000       0.00000000       0.50000000 </v>
   <v>       0.50000000      -0.00000000       0.50000000 </v>
   <v>       0.00000000       0.25000000       0.50000000 </v>
   <v>       0.25000000       0.25000000       0.50000000 </v>
   <v>       0.50000000       0.25000000       0.50000000 </v>
   <v>      -0.25000000       0.25000000       0.50000000 </v>
   <v>       0.00000000       0.50000000       0.50000000 </v>
   <v>       0.25000000       0.50000000       0.50000000 </v>
   <v>       0.50000000       0.50000000       0.50000000 </v>
  </varray>
  <varray name="weights" >
   <v>       0.01562500 </v>
   <v>       0.03125000 </v>
   <v>       0.01562500 </v>
   <v>       0.03125000 </v>
   <v>       0.03125000 </v>
   <v>       0.03125000 </v>
   <v>       0.03125000 </v>
   <v>       0.01562500 </v>
   <v>       0.03125000 </v>
   <v>       0.01562500 </v>
   <v>       0.03125000 </v>
   <v>       0.03125000 </v>
   <v>       0.03125000 </v>
   <v>       0.03125000 </v>
   <v>       0.03125000 </v>
   <v>       0.03125000 </v>
   <v>       0.03125000 </v>
   <v>       0.03125000 </v>
   <v>       0.03125000 </v>
   <v>       0.03125000 </v>
   <v>       0.03125000 </v>
   <v>       0.03125000 </v>
   <v>       0.03125000 </v>
   <v>       0.03125000 </v>
   <v>       0.03125000 </v>
   <v>       0.03125000 </v>
   <v>       0.01562500 </v>
   <v>       0.03125000 </v>
   <v>       0.01562500 </v>
   <v>       0.03125000 </v>
   <v>       0.03125000 </v>
   <v>       0.03125000 </v>
   <v>       0.03125000 </v>
   <v>       0.01562500 </v>
   <v>       0.03125000 </v>
   <v>       0.01562500 </v>
  </varray>
  <varray name="tetrahedronlist"  type="int" >
   <v type="int" >        2        1        4        5       16 </v>
   <v type="int" >        2        1        2        5       16 </v>
   <v type="int" >        2        1        2       12       16 </v>
   <v type="int" >        2        1        4       15       16 </v>
   <v type="int" >        2        1       11       15       16 </v>
   <v type="int" >        2        1       11       12       16 </v>
   <v type="int" >        2        2        5        6       17 </v>
   <v type="int" >        2        2        3        6       17 </v>
   <v type="int" >        2        2        3       13       17 </v>
   <v type="int" >        2        2        5       16       17 </v>
   <v type="int" >        2        2       12       16       17 </v>
   <v type="int" >        2        2       12       13       17 </v>
   <v type="int" >        2        3        6        7       18 </v>
   <v type="int" >        2        2        3        7       18 </v>
   <v type="int" >        2        2        3       14       18 </v>
   <v type="int" >        2        3        6       17       18 </v>
   <v type="int" >        2        3       13       17       18 </v>
   <v type="int" >        2        3       13       14       18 </v>
   <v type="int" >        2        2        4        7       15 </v>
   <v type="int" >        2        1        2        4       15 </v>
   <v type="int" >        2        1        2       11       15 </v>
   <v type="int" >        2        2        7       15       18 </v>
   <v type="int" >        2        2       14       15       18 </v>
   <v type="int" >        2        2       11       14       15 </v>
   <v type="int" >        2        4        8        9       20 </v>
   <v type="int" >        2        4        5        9       20 </v>
   <v type="int" >        2        4        5       16       20 </v>
   <v type="int" >        2        4        8       19       20 </v>
   <v type="int" >        2        4       15       19       20 </v>
   <v type="int" >        2        4       15       16       20 </v>
   <v type="int" >        2        5        9       10       21 </v>
   <v type="int" >        2        5        6       10       21 </v>
   <v type="int" >        2        5        6       17       21 </v>
   <v type="int" >        2        5        9       20       21 </v>
   <v type="int" >        2        5       16       20       21 </v>
   <v type="int" >        2        5       16       17       21 </v>
   <v type="int" >        2        6        9       10       22 </v>
   <v type="int" >        2        6        7        9       22 </v>
   <v type="int" >        2        6        7       18       22 </v>
   <v type="int" >        2        6       10       21       22 </v>
   <v type="int" >        2        6       17       21       22 </v>
   <v type="int" >        2        6       17       18       22 </v>
   <v type="int" >        2        7        8        9       19 </v>
   <v type="int" >        2        4        7        8       19 </v>
   <v type="int" >        2        4        7       15       19 </v>
   <v type="int" >        2        7        9       19       22 </v>
   <v type="int" >        2        7       18       19       22 </v>
   <v type="int" >        2        7       15       18       19 </v>
   <v type="int" >        2        4        7        8       24 </v>
   <v type="int" >        2        7        8        9       24 </v>
   <v type="int" >        2        8        9       20       24 </v>
   <v type="int" >        2        4        8       23       24 </v>
   <v type="int" >        2        8       19       23       24 </v>
   <v type="int" >        2        8       19       20       24 </v>
   <v type="int" >        2        6        7        9       25 </v>
   <v type="int" >        2        6        9       10       25 </v>
   <v type="int" >        2        9       10       21       25 </v>
   <v type="int" >        2        7        9       24       25 </v>
   <v type="int" >        2        9       20       24       25 </v>
   <v type="int" >        2        9       20       21       25 </v>
   <v type="int" >        2        5        6       10       26 </v>
   <v type="int" >        2        5        9       10       26 </v>
   <v type="int" >        2        9       10       22       26 </v>
   <v type="int" >        2        6       10       25       26 </v>
   <v type="int" >        2       10       21       25       26 </v>
   <v type="int" >        2       10       21       22       26 </v>
   <v type="int" >        2        4        5        9       23 </v>
   <v type="int" >        2        4        8        9       23 </v>
   <v type="int" >        2        8        9       19       23 </v>
   <v type="int" >        2        5        9       23       26 </v>
   <v type="int" >        2        9       22       23       26 </v>
   <v type="int" >        2        9       19       22       23 </v>
   <v type="int" >        2        1        2        4       12 </v>
   <v type="int" >        2        2        4        7       12 </v>
   <v type="int" >        2        4        7       12       24 </v>
   <v type="int" >        2        1        4       11       12 </v>
   <v type="int" >        2        4       11       12       23 </v>
   <v type="int" >        2        4       12       23       24 </v>
   <v type="int" >        2        2        3        7       13 </v>
   <v type="int" >        2        3        6        7       13 </v>
   <v type="int" >        2        6        7       13       25 </v>
   <v type="int" >        2        2        7       12       13 </v>
   <v type="int" >        2        7       12       13       24 </v>
   <v type="int" >        2        7       13       24       25 </v>
   <v type="int" >        2        2        3        6       14 </v>
   <v type="int" >        2        2        5        6       14 </v>
   <v type="int" >        2        5        6       14       26 </v>
   <v type="int" >        2        3        6       13       14 </v>
   <v type="int" >        2        6       13       14       25 </v>
   <v type="int" >        2        6       14       25       26 </v>
   <v type="int" >        2        1        2        5       11 </v>
   <v type="int" >        2        1        4        5       11 </v>
   <v type="int" >        2        4        5       11       23 </v>
   <v type="int" >        2        2        5       11       14 </v>
   <v type="int" >        2        5       11       14       26 </v>
   <v type="int" >        2        5       11       23       26 </v>
   <v type="int" >        2       11       15       16       31 </v>
   <v type="int" >        2       11       12       16       31 </v>
   <v type="int" >        2       11       12       28       31 </v>
   <v type="int" >        2       11       15       30       31 </v>
   <v type="int" >        2       11       27       30       31 </v>
   <v type="int" >        2       11       27       28       31 </v>
   <v type="int" >        2       12       16       17       32 </v>
   <v type="int" >        2       12       13       17       32 </v>
   <v type="int" >        2       12       13       29       32 </v>
   <v type="int" >        2       12       16       31       32 </v>
   <v type="int" >        2       12       28       31       32 </v>
   <v type="int" >        2       12       28       29       32 </v>
   <v type="int" >        2       13       17       18       33 </v>
   <v type="int" >        2       13       14       18       33 </v>
   <v type="int" >        2       13       14       28       33 </v>
   <v type="int" >        2       13       17       32       33 </v>
   <v type="int" >        2       13       29       32       33 </v>
   <v type="int" >        2       13       28       29       33 </v>
   <v type="int" >        2       14       15       18       30 </v>
   <v type="int" >        2       11       14       15       30 </v>
   <v type="int" >        2       11       14       27       30 </v>
   <v type="int" >        2       14       18       30       33 </v>
   <v type="int" >        2       14       28       30       33 </v>
   <v type="int" >        2       14       27       28       30 </v>
   <v type="int" >        2       15       19       20       35 </v>
   <v type="int" >        2       15       16       20       35 </v>
   <v type="int" >        2       15       16       31       35 </v>
   <v type="int" >        2       15       19       34       35 </v>
   <v type="int" >        2       15       30       34       35 </v>
   <v type="int" >        2       15       30       31       35 </v>
   <v type="int" >        2       16       20       21       36 </v>
   <v type="int" >        2       16       17       21       36 </v>
   <v type="int" >        2       16       17       32       36 </v>
   <v type="int" >        2       16       20       35       36 </v>
   <v type="int" >        2       16       31       35       36 </v>
   <v type="int" >        2       16       31       32       36 </v>
   <v type="int" >        2       17       21       22       35 </v>
   <v type="int" >        2       17       18       22       35 </v>
   <v type="int" >        2       17       18       33       35 </v>
   <v type="int" >        2       17       21       35       36 </v>
   <v type="int" >        2       17       32       35       36 </v>
   <v type="int" >        2       17       32       33       35 </v>
   <v type="int" >        2       18       19       22       34 </v>
   <v type="int" >        2       15       18       19       34 </v>
   <v type="int" >        2       15       18       30       34 </v>
   <v type="int" >        2       18       22       34       35 </v>
   <v type="int" >        2       18       33       34       35 </v>
   <v type="int" >        2       18       30       33       34 </v>
   <v type="int" >        2       19       23       24       33 </v>
   <v type="int" >        2       19       20       24       33 </v>
   <v type="int" >        2       19       20       33       35 </v>
   <v type="int" >        2       19       23       30       33 </v>
   <v type="int" >        2       19       30       33       34 </v>
   <v type="int" >        2       19       33       34       35 </v>
   <v type="int" >        2       20       24       25       32 </v>
   <v type="int" >        2       20       21       25       32 </v>
   <v type="int" >        2       20       21       32       36 </v>
   <v type="int" >        2       20       24       32       33 </v>
   <v type="int" >        2       20       32       33       35 </v>
   <v type="int" >        2       20       32       35       36 </v>
   <v type="int" >        2       21       25       26       31 </v>
   <v type="int" >        2       21       22       26       31 </v>
   <v type="int" >        2       21       22       31       35 </v>
   <v type="int" >        2       21       25       31       32 </v>
   <v type="int" >        2       21       31       32       36 </v>
   <v type="int" >        2       21       31       35       36 </v>
   <v type="int" >        2       22       23       26       30 </v>
   <v type="int" >        2       19       22       23       30 </v>
   <v type="int" >        2       19       22       30       34 </v>
   <v type="int" >        2       22       26       30       31 </v>
   <v type="int" >        2       22       30       31       35 </v>
   <v type="int" >        2       22       30       34       35 </v>
   <v type="int" >        2       11       12       23       28 </v>
   <v type="int" >        2       12       23       24       28 </v>
   <v type="int" >        2       23       24       28       33 </v>
   <v type="int" >        2       11       23       27       28 </v>
   <v type="int" >        2       23       27       28       30 </v>
   <v type="int" >        2       23       28       30       33 </v>
   <v type="int" >        2       12       13       24       29 </v>
   <v type="int" >        2       13       24       25       29 </v>
   <v type="int" >        2       24       25       29       32 </v>
   <v type="int" >        2       12       24       28       29 </v>
   <v type="int" >        2       24       28       29       33 </v>
   <v type="int" >        2       24       29       32       33 </v>
   <v type="int" >        2       13       14       25       28 </v>
   <v type="int" >        2       14       25       26       28 </v>
   <v type="int" >        2       25       26       28       31 </v>
   <v type="int" >        2       13       25       28       29 </v>
   <v type="int" >        2       25       28       29       32 </v>
   <v type="int" >        2       25       28       31       32 </v>
   <v type="int" >        2       11       14       26       27 </v>
   <v type="int" >        2       11       23       26       27 </v>
   <v type="int" >        2       23       26       27       30 </v>
   <v type="int" >        2       14       26       27       28 </v>
   <v type="int" >        2       26       27       28       31 </v>
   <v type="int" >        2       26       27       30       31 </v>
  </varray>
  <i name="volumeweight">      0.00260417 </i>
 </kpoints>
 <parameters>
  <separator name="general" >
   <i type="string" name="SYSTEM">Li(NbTa)O_3</i>
   <i type="logical" name="LCOMPAT"> F  </i>
  </separator>
  <separator name="electronic" >
   <i type="string" name="PREC">accura</i>
   <i name="ENMAX">    475.00000000</i>
   <i name="ENAUG">    605.39200000</i>
   <i name="EDIFF">      0.00000100</i>
   <i type="int" name="IALGO">    68</i>
   <i type="int" name="IWAVPR">    11</i>
   <i type="int" name="NBANDS">   288</i>
   <i name="NELECT">    464.00000000</i>
   <i type="int" name="TURBO">     0</i>
   <i type="int" name="IRESTART">     0</i>
   <i type="int" name="NREBOOT">     0</i>
   <i type="int" name="NMIN">     0</i>
   <i name="EREF">      0.00000000</i>
   <separator name="electronic smearing" >
    <i type="int" name="ISMEAR">    -5</i>
    <i name="SIGMA">      0.05000000</i>
    <i name="KSPACING">      0.50000000</i>
    <i type="logical" name="KGAMMA"> T  </i>
   </separator>
   <separator name="electronic projectors" >
    <i type="logical" name="LREAL"> T  </i>
    <v name="ROPT">     -0.00025000     -0.00025000     -0.00025000     -0.00025000</v>
    <i type="int" name="LMAXPAW">  -100</i>
    <i type="int" name="LMAXMIX">     2</i>
    <i type="logical" name="NLSPLINE"> F  </i>
   </separator>
   <separator name="electronic startup" >
    <i type="int" name="ISTART">     0</i>
    <i type="int" name="ICHARG">     2</i>
    <i type="int" name="INIWAV">     1</i>
   </separator>
   <separator name="electronic spin" >
    <i type="int" name="ISPIN">     1</i>
    <i type="logical" name="LNONCOLLINEAR"> F  </i>
    <v name="MAGMOM">      1.00000000      1.00000000      1.00000000      1.00000000      1.00000000      1.00000000      1.00000000      1.00000000      1.00000000      1.00000000      1.00000000      1.00000000      1.00000000      1.00000000      1.00000000      1.00000000      1.00000000      1.00000000      1.00000000      1.00000000
      1.00000000      1.00000000      1.00000000      1.00000000      1.00000000      1.00000000      1.00000000      1.00000000      1.00000000      1.00000000      1.00000000      1.00000000      1.00000000      1.00000000      1.00000000      1.00000000      1.00000000      1.00000000      1.00000000      1.00000000
      1.00000000      1.00000000      1.00000000      1.00000000      1.00000000      1.00000000      1.00000000      1.00000000      1.00000000      1.00000000      1.00000000      1.00000000      1.00000000      1.00000000      1.00000000      1.00000000      1.00000000      1.00000000      1.00000000      1.00000000
      1.00000000      1.00000000      1.00000000      1.00000000      1.00000000      1.00000000      1.00000000      1.00000000      1.00000000      1.00000000      1.00000000      1.00000000      1.00000000      1.00000000      1.00000000      1.00000000      1.00000000      1.00000000      1.00000000      1.00000000
</v>
    <i name="NUPDOWN">     -1.00000000</i>
    <i type="logical" name="LSORBIT"> F  </i>
    <v name="SAXIS">      0.00000000      0.00000000      1.00000000</v>
    <i type="logical" name="LSPIRAL"> F  </i>
    <v name="QSPIRAL">      0.00000000      0.00000000      0.00000000</v>
    <i type="logical" name="LZEROZ"> F  </i>
   </separator>
   <separator name="electronic exchange-correlation" >
    <i type="logical" name="LASPH"> F  </i>
    <i type="logical" name="LMETAGGA"> F  </i>
   </separator>
   <separator name="electronic convergence" >
    <i type="int" name="NELM">  1000</i>
    <i type="int" name="NELMDL">    -5</i>
    <i type="int" name="NELMIN">     4</i>
    <i name="ENINI">    475.00000000</i>
    <separator name="electronic convergence detail" >
     <i type="logical" name="LDIAG"> T  </i>
     <i type="logical" name="LSUBROT"> F  </i>
     <i name="WEIMIN">      0.00100000</i>
     <i name="EBREAK">      0.00000000</i>
     <i name="DEPER">      0.30000000</i>
     <i type="int" name="NRMM">     4</i>
     <i name="TIME">      0.40000000</i>
    </separator>
   </separator>
   <separator name="electronic mixer" >
    <i name="AMIX">      0.40000000</i>
    <i name="BMIX">      1.00000000</i>
    <i name="AMIN">      0.10000000</i>
    <i name="AMIX_MAG">      1.60000000</i>
    <i name="BMIX_MAG">      1.00000000</i>
    <separator name="electronic mixer details" >
     <i type="int" name="IMIX">     4</i>
     <i type="logical" name="MIXFIRST"> F  </i>
     <i type="int" name="MAXMIX">   -45</i>
     <i name="WC">    100.00000000</i>
     <i type="int" name="INIMIX">     1</i>
     <i type="int" name="MIXPRE">     1</i>
     <i type="int" name="MREMOVE">     5</i>
    </separator>
   </separator>
   <separator name="electronic dipolcorrection" >
    <i type="logical" name="LDIPOL"> F  </i>
    <i type="logical" name="LMONO"> F  </i>
    <i type="int" name="IDIPOL">     0</i>
    <i name="EPSILON">      1.00000000</i>
    <v name="DIPOL">   -100.00000000   -100.00000000   -100.00000000</v>
    <i name="EFIELD">      0.00000000</i>
   </separator>
  </separator>
  <separator name="grids" >
   <i type="int" name="NGX">    80</i>
   <i type="int" name="NGY">    80</i>
   <i type="int" name="NGZ">    80</i>
   <i type="int" name="NGXF">   160</i>
   <i type="int" name="NGYF">   160</i>
   <i type="int" name="NGZF">   160</i>
   <i type="logical" name="ADDGRID"> F  </i>
  </separator>
  <separator name="ionic" >
   <i type="int" name="NSW">   200</i>
   <i type="int" name="IBRION">     1</i>
   <i type="int" name="MDALGO">     0</i>
   <i type="int" name="ISIF">     4</i>
   <i name="PSTRESS">      0.00000000</i>
   <i name="EDIFFG">     -0.00500000</i>
   <i type="int" name="NFREE">     0</i>
   <i name="POTIM">      0.15000000</i>
   <i name="SMASS">     -3.00000000</i>
   <i name="SCALEE">      1.00000000</i>
  </separator>
  <separator name="ionic md" >
   <i name="TEBEG">      0.00010000</i>
   <i name="TEEND">      0.00010000</i>
   <i type="int" name="NBLOCK">     1</i>
   <i type="int" name="KBLOCK">   200</i>
   <i type="int" name="NPACO">   256</i>
   <i name="APACO">     16.00000000</i>
  </separator>
  <separator name="symmetry" >
   <i type="int" name="ISYM">     2</i>
   <i name="SYMPREC">      0.00001000</i>
  </separator>
  <separator name="dos" >
   <i type="int" name="LORBIT">     0</i>
   <v name="RWIGS">     -1.00000000     -1.00000000     -1.00000000     -1.00000000</v>
   <i type="int" name="NEDOS">   301</i>
   <i name="EMIN">     10.00000000</i>
   <i name="EMAX">    -10.00000000</i>
   <i name="EFERMI">      0.00000000</i>
  </separator>
  <separator name="writing" >
   <i type="int" name="NWRITE">     0</i>
   <i type="logical" name="LWAVE"> F  </i>
   <i type="logical" name="LDOWNSAMPLE"> F  </i>
   <i type="logical" name="LCHARG"> F  </i>
   <i type="logical" name="LPARD"> F  </i>
   <i type="logical" name="LVTOT"> F  </i>
   <i type="logical" name="LVHAR"> F  </i>
   <i type="logical" name="LELF"> F  </i>
   <i type="logical" name="LOPTICS"> F  </i>
   <v name="STM">      0.00000000      0.00000000      0.00000000      0.00000000      0.00000000      0.00000000      0.00000000</v>
  </separator>
  <separator name="performance" >
   <i type="int" name="NPAR">    72</i>
   <i type="int" name="NSIM">     4</i>
   <i type="int" name="NBLK">    -1</i>
   <i type="logical" name="LPLANE"> T  </i>
   <i type="logical" name="LSCALAPACK"> F  </i>
   <i type="logical" name="LSCAAWARE"> F  </i>
   <i type="logical" name="LSCALU"> F  </i>
   <i type="logical" name="LASYNC"> F  </i>
   <i type="logical" name="LORBITALREAL"> F  </i>
  </separator>
  <separator name="miscellaneous" >
   <i type="int" name="IDIOT">     3</i>
   <i type="int" name="ISPECIAL">     0</i>
   <i type="logical" name="LMUSIC"> F  </i>
   <v name="POMASS">      7.01000000     92.91000000     16.00000000    180.94800000</v>
   <v name="DARWINR">      0.00000000      0.00000000      0.00000000      0.00000000</v>
   <v name="DARWINV">      1.00000000      1.00000000      1.00000000      1.00000000</v>
   <i type="logical" name="LCORR"> T  </i>
  </separator>
  <i type="logical" name="GGA_COMPAT"> T  </i>
  <i type="logical" name="LBERRY"> F  </i>
  <i type="int" name="ICORELEVEL">     0</i>
  <i type="logical" name="LDAU"> F  </i>
  <i type="int" name="I_CONSTRAINED_M">     0</i>
  <separator name="electronic exchange-correlation" >
   <i type="string" name="GGA">PS</i>
   <i type="int" name="VOSKOWN">     0</i>
   <i type="logical" name="LHFCALC"> F  </i>
   <i type="string" name="PRECFOCK"></i>
   <i type="logical" name="LSYMGRAD"> F  </i>
   <i type="logical" name="LHFONE"> F  </i>
   <i type="logical" name="LRHFCALC"> F  </i>
   <i type="logical" name="LTHOMAS"> F  </i>
   <i type="logical" name="LMODELHF"> F  </i>
   <i name="ENCUT4O">     -1.00000000</i>
   <i type="int" name="EXXOEP">     0</i>
   <i type="int" name="FOURORBIT">     0</i>
   <i name="AEXX">      0.00000000</i>
   <i name="HFALPHA">      0.00000000</i>
   <i name="MCALPHA">      0.00000000</i>
   <i name="ALDAX">      1.00000000</i>
   <i name="AGGAX">      1.00000000</i>
   <i name="ALDAC">      1.00000000</i>
   <i name="AGGAC">      1.00000000</i>
   <i type="int" name="NKREDX">     1</i>
   <i type="int" name="NKREDY">     1</i>
   <i type="int" name="NKREDZ">     1</i>
   <i type="logical" name="SHIFTRED"> F  </i>
   <i type="logical" name="ODDONLY"> F  </i>
   <i type="logical" name="EVENONLY"> F  </i>
   <i type="int" name="LMAXFOCK">     0</i>
   <i type="int" name="NMAXFOCKAE">     0</i>
   <i type="logical" name="LFOCKAEDFT"> F  </i>
   <i name="HFSCREEN">      0.00000000</i>
   <i name="HFSCREENC">      0.00000000</i>
   <i type="int" name="NBANDSGWLOW">     0</i>
  </separator>
  <separator name="vdW DFT" >
   <i type="logical" name="LUSE_VDW"> F  </i>
   <i name="Zab_VDW">     -0.84910000</i>
   <i name="PARAM1">      0.12340000</i>
   <i name="PARAM2">      1.00000000</i>
   <i name="PARAM3">      0.00000000</i>
  </separator>
  <separator name="model GW" >
   <i type="int" name="MODEL_GW">     0</i>
   <i name="MODEL_EPS0">      5.97479295</i>
   <i name="MODEL_ALPHA">      1.00000000</i>
  </separator>
  <separator name="linear response parameters" >
   <i type="logical" name="LEPSILON"> F  </i>
   <i type="logical" name="LRPA"> F  </i>
   <i type="logical" name="LNABLA"> F  </i>
   <i type="logical" name="LVEL"> F  </i>
   <i type="int" name="KINTER">     0</i>
   <i name="CSHIFT">      0.10000000</i>
   <i name="OMEGAMAX">     -1.00000000</i>
   <i name="DEG_THRESHOLD">      0.00200000</i>
   <i name="RTIME">     -0.10000000</i>
   <i name="WPLASMAI">      0.00000000</i>
   <v name="DFIELD">      0.00000000      0.00000000      0.00000000</v>
   <v name="WPLASMA">      0.00000000      0.00000000      0.00000000      0.00000000      0.00000000      0.00000000      0.00000000      0.00000000      0.00000000</v>
  </separator>
  <separator name="orbital magnetization" >
   <i type="logical" name="NUCIND"> F  </i>
   <v name="MAGPOS">      0.00000000      0.00000000      0.00000000</v>
   <i type="logical" name="LNICSALL"> T  </i>
   <i type="logical" name="ORBITALMAG"> F  </i>
   <i type="logical" name="LMAGBLOCH"> F  </i>
   <i type="logical" name="LCHIMAG"> F  </i>
   <i type="logical" name="LGAUGE"> T  </i>
   <i type="int" name="MAGATOM">     0</i>
   <v name="MAGDIPOL">      0.00000000      0.00000000      0.00000000</v>
   <v name="AVECCONST">      0.00000000      0.00000000      0.00000000</v>
  </separator>
  <separator name="response functions" >
   <i type="logical" name="LADDER"> F  </i>
   <i type="logical" name="LRPAFORCE"> F  </i>
   <i type="logical" name="LFXC"> F  </i>
   <i type="logical" name="LHARTREE"> T  </i>
   <i type="int" name="IBSE">     0</i>
   <v type="int" name="KPOINT">    -1     0     0     0</v>
   <i type="logical" name="LTCTE"> F  </i>
   <i type="logical" name="LTETE"> F  </i>
   <i type="logical" name="LTRIPLET"> F  </i>
   <i type="logical" name="LFXCEPS"> F  </i>
   <i type="logical" name="LFXHEG"> F  </i>
   <i type="int" name="NATURALO">     2</i>
   <i type="logical" name="L2ORDER"> F  </i>
   <i type="logical" name="LMP2LT"> F  </i>
   <i type="logical" name="LUSEW"> F  </i>
   <i name="ENCUTGW">     -2.00000000</i>
   <i name="ENCUTGWSOFT">     -2.00000000</i>
   <i name="ENCUTLF">     -1.00000000</i>
   <i type="int" name="LMAXMP2">    -1</i>
   <i name="SCISSOR">      0.00000000</i>
   <i type="int" name="NOMEGA">     0</i>
   <i type="int" name="NOMEGAR">     0</i>
   <i type="int" name="NBANDSGW">    -1</i>
   <i type="int" name="NBANDSO">    -1</i>
   <i type="int" name="NBANDSV">    -1</i>
   <i type="int" name="NELM">  1000</i>
   <i type="int" name="NELMHF">     1</i>
   <i type="int" name="DIM">     3</i>
   <i type="int" name="ANTIRES">     0</i>
   <i name="OMEGAMAX">    -30.00000000</i>
   <i name="OMEGAMIN">    -30.00000000</i>
   <i name="OMEGATL">   -200.00000000</i>
   <i type="int" name="OMEGAGRID">   140</i>
   <i name="CSHIFT">     -0.10000000</i>
   <i type="logical" name="SELFENERGY"> F  </i>
   <i type="logical" name="LSPECTRAL"> F  </i>
   <i type="logical" name="LSPECTRALGW"> F  </i>
   <i type="logical" name="LSINGLES"> F  </i>
   <i type="logical" name="LFERMIGW"> F  </i>
   <i type="logical" name="ODDONLYGW"> F  </i>
   <i type="logical" name="EVENONLYGW"> F  </i>
   <i type="int" name="NKREDLFX">     1</i>
   <i type="int" name="NKREDLFY">     1</i>
   <i type="int" name="NKREDLFZ">     1</i>
   <i type="int" name="MAXMEM">  2800</i>
   <i type="int" name="TELESCOPE">     0</i>
   <i type="int" name="TAUPAR">     1</i>
   <i type="int" name="OMEGAPAR">    -1</i>
   <i name="LAMBDA">      1.00000000</i>
  </separator>
  <separator name="External order field" >
   <i name="OFIELD_KAPPA">      0.00000000</i>
   <v name="OFIELD_K">      0.00000000      0.00000000      0.00000000</v>
   <i name="OFIELD_Q6_NEAR">      0.00000000</i>
   <i name="OFIELD_Q6_FAR">      0.00000000</i>
   <i name="OFIELD_A">      0.00000000</i>
  </separator>
 </parameters>
 <atominfo>
  <atoms>      80 </atoms>
  <types>       4 </types>
  <array name="atoms" >
   <dimension dim="1">ion</dimension>
   <field type="string">element</field>
   <field type="int">atomtype</field>
   <set>
    <rc><c>Li</c><c>   1</c></rc>
    <rc><c>Li</c><c>   1</c></rc>
    <rc><c>Li</c><c>   1</c></rc>
    <rc><c>Li</c><c>   1</c></rc>
    <rc><c>Li</c><c>   1</c></rc>
    <rc><c>Li</c><c>   1</c></rc>
    <rc><c>Li</c><c>   1</c></rc>
    <rc><c>Li</c><c>   1</c></rc>
    <rc><c>Li</c><c>   1</c></rc>
    <rc><c>Li</c><c>   1</c></rc>
    <rc><c>Li</c><c>   1</c></rc>
    <rc><c>Li</c><c>   1</c></rc>
    <rc><c>Li</c><c>   1</c></rc>
    <rc><c>Li</c><c>   1</c></rc>
    <rc><c>Li</c><c>   1</c></rc>
    <rc><c>Li</c><c>   1</c></rc>
    <rc><c>Nb</c><c>   2</c></rc>
    <rc><c>Nb</c><c>   2</c></rc>
    <rc><c>Nb</c><c>   2</c></rc>
    <rc><c>Nb</c><c>   2</c></rc>
    <rc><c>Nb</c><c>   2</c></rc>
    <rc><c>Nb</c><c>   2</c></rc>
    <rc><c>Nb</c><c>   2</c></rc>
    <rc><c>Nb</c><c>   2</c></rc>
    <rc><c>Nb</c><c>   2</c></rc>
    <rc><c>Nb</c><c>   2</c></rc>
    <rc><c>O </c><c>   3</c></rc>
    <rc><c>O </c><c>   3</c></rc>
    <rc><c>O </c><c>   3</c></rc>
    <rc><c>O </c><c>   3</c></rc>
    <rc><c>O </c><c>   3</c></rc>
    <rc><c>O </c><c>   3</c></rc>
    <rc><c>O </c><c>   3</c></rc>
    <rc><c>O </c><c>   3</c></rc>
    <rc><c>O </c><c>   3</c></rc>
    <rc><c>O </c><c>   3</c></rc>
    <rc><c>O </c><c>   3</c></rc>
    <rc><c>O </c><c>   3</c></rc>
    <rc><c>O </c><c>   3</c></rc>
    <rc><c>O </c><c>   3</c></rc>
    <rc><c>O </c><c>   3</c></rc>
    <rc><c>O </c><c>   3</c></rc>
    <rc><c>O </c><c>   3</c></rc>
    <rc><c>O </c><c>   3</c></rc>
    <rc><c>O </c><c>   3</c></rc>
    <rc><c>O </c><c>   3</c></rc>
    <rc><c>O </c><c>   3</c></rc>
    <rc><c>O </c><c>   3</c></rc>
    <rc><c>O </c><c>   3</c></rc>
    <rc><c>O </c><c>   3</c></rc>
    <rc><c>O </c><c>   3</c></rc>
    <rc><c>O </c><c>   3</c></rc>
    <rc><c>O </c><c>   3</c></rc>
    <rc><c>O </c><c>   3</c></rc>
    <rc><c>O </c><c>   3</c></rc>
    <rc><c>O </c><c>   3</c></rc>
    <rc><c>O </c><c>   3</c></rc>
    <rc><c>O </c><c>   3</c></rc>
    <rc><c>O </c><c>   3</c></rc>
    <rc><c>O </c><c>   3</c></rc>
    <rc><c>O </c><c>   3</c></rc>
    <rc><c>O </c><c>   3</c></rc>
    <rc><c>O </c><c>   3</c></rc>
    <rc><c>O </c><c>   3</c></rc>
    <rc><c>O </c><c>   3</c></rc>
    <rc><c>O </c><c>   3</c></rc>
    <rc><c>O </c><c>   3</c></rc>
    <rc><c>O </c><c>   3</c></rc>
    <rc><c>O </c><c>   3</c></rc>
    <rc><c>O </c><c>   3</c></rc>
    <rc><c>O </c><c>   3</c></rc>
    <rc><c>O </c><c>   3</c></rc>
    <rc><c>O </c><c>   3</c></rc>
    <rc><c>O </c><c>   3</c></rc>
    <rc><c>Ta</c><c>   4</c></rc>
    <rc><c>Ta</c><c>   4</c></rc>
    <rc><c>Ta</c><c>   4</c></rc>
    <rc><c>Ta</c><c>   4</c></rc>
    <rc><c>Ta</c><c>   4</c></rc>
    <rc><c>Ta</c><c>   4</c></rc>
   </set>
  </array>
  <array name="atomtypes" >
   <dimension dim="1">type</dimension>
   <field type="int">atomspertype</field>
   <field type="string">element</field>
   <field>mass</field>
   <field>valence</field>
   <field type="string">pseudopotential</field>
   <set>
    <rc><c>  16</c><c>Li</c><c>      7.01000000</c><c>      1.00000000</c><c>  PAW_PBE Li 17Jan2003                  </c></rc>
    <rc><c>  10</c><c>Nb</c><c>     92.91000000</c><c>     13.00000000</c><c>  PAW_PBE Nb_sv 25May2007               </c></rc>
    <rc><c>  48</c><c>O </c><c>     16.00000000</c><c>      6.00000000</c><c>  PAW_PBE O 08Apr2002                   </c></rc>
    <rc><c>   6</c><c>Ta</c><c>    180.94800000</c><c>      5.00000000</c><c>  PAW_PBE Ta 17Jan2003                  </c></rc>
   </set>
  </array>
 </atominfo>
 <structure name="initialpos" >
  <crystal>
   <varray name="basis" >
    <v>       5.04654780      -2.91206231       9.03562475 </v>
    <v>       0.00242297       5.82567956       9.03477949 </v>
    <v>      -5.04399348      -2.91338537       9.03377877 </v>
   </varray>
   <i name="volume">    796.63906048 </i>
   <varray name="rec_basis" >
    <v>       0.09910347      -0.05723201       0.03687696 </v>
    <v>      -0.00002175       0.11443706       0.03689370 </v>
    <v>      -0.09910196      -0.05720602       0.03691336 </v>
   </varray>
  </crystal>
  <varray name="positions" >
   <v>       0.13834752       0.13936271       0.13984335 </v>
   <v>       0.39146324       0.38999630       0.39085144 </v>
   <v>       0.14028321       0.14032414       0.64092124 </v>
   <v>       0.39173469       0.39088444       0.89059988 </v>
   <v>       0.14005761       0.63914415       0.13990376 </v>
   <v>       0.38998511       0.89022976       0.39046082 </v>
   <v>       0.14027342       0.63856692       0.63942290 </v>
   <v>       0.39066873       0.89122478       0.89017412 </v>
   <v>       0.63968950       0.14081636       0.13851063 </v>
   <v>       0.89081879       0.39199278       0.39127564 </v>
   <v>       0.64044608       0.13979598       0.63895884 </v>
   <v>       0.89104424       0.39188824       0.88993991 </v>
   <v>       0.63987068       0.64050964       0.14005521 </v>
   <v>       0.88952244       0.89019616       0.39154151 </v>
   <v>       0.64095434       0.64008558       0.64144699 </v>
   <v>       0.89103108       0.89076076       0.89134632 </v>
   <v>       0.99959237       0.00150112       0.99675172 </v>
   <v>       0.99938324       0.00003493       0.49763958 </v>
   <v>       0.25168038       0.24891337       0.74959517 </v>
   <v>       0.99749990       0.49794372       0.00086033 </v>
   <v>       0.00052440       0.49715140       0.50088067 </v>
   <v>       0.49988249       0.99738472       0.00090131 </v>
   <v>       0.49954620       0.50003968       0.99785757 </v>
   <v>       0.75097315       0.74942469       0.24984287 </v>
   <v>       0.49985523       0.50129758       0.49655071 </v>
   <v>       0.74940214       0.75095878       0.74802348 </v>
   <v>       0.05623360       0.18120304       0.36059596 </v>
   <v>       0.36055215       0.05618073       0.18135900 </v>
   <v>       0.18067803       0.36043515       0.05635112 </v>
   <v>       0.43164615       0.30579781       0.11007695 </v>
   <v>       0.10933811       0.43208088       0.30572184 </v>
   <v>       0.30616879       0.11038237       0.43144631 </v>
   <v>       0.05540035       0.18155956       0.86034038 </v>
   <v>       0.35943918       0.05639020       0.68203455 </v>
   <v>       0.18159346       0.36067916       0.55556672 </v>
   <v>       0.43176800       0.30520898       0.61104129 </v>
   <v>       0.11066152       0.43074915       0.80539644 </v>
   <v>       0.30515946       0.11079423       0.93190663 </v>
   <v>       0.05604537       0.68076856       0.36081137 </v>
   <v>       0.36061507       0.55618152       0.18081868 </v>
   <v>       0.18040413       0.86090372       0.05629587 </v>
   <v>       0.43096027       0.80670950       0.10983535 </v>
   <v>       0.11018018       0.93120277       0.30647725 </v>
   <v>       0.30631393       0.60963452       0.43142758 </v>
   <v>       0.05642617       0.67983109       0.86072292 </v>
   <v>       0.36082901       0.55621291       0.68039936 </v>
   <v>       0.18050111       0.86073339       0.55625759 </v>
   <v>       0.43105925       0.80638098       0.60992686 </v>
   <v>       0.10974163       0.93076687       0.80662904 </v>
   <v>       0.30592914       0.60973059       0.93157562 </v>
   <v>       0.55668960       0.18089021       0.36049958 </v>
   <v>       0.86099568       0.05588109       0.18065345 </v>
   <v>       0.68094161       0.36072792       0.05606070 </v>
   <v>       0.93094987       0.30643726       0.10970186 </v>
   <v>       0.61015919       0.43137998       0.30635721 </v>
   <v>       0.80662739       0.10979363       0.43135599 </v>
   <v>       0.55625493       0.18016866       0.86082204 </v>
   <v>       0.86060460       0.05601788       0.68054061 </v>
   <v>       0.68056339       0.36084158       0.55626059 </v>
   <v>       0.93128773       0.30623948       0.60979445 </v>
   <v>       0.61008613       0.43101265       0.80636497 </v>
   <v>       0.80623116       0.10929440       0.93147945 </v>
   <v>       0.55554077       0.68183433       0.36007734 </v>
   <v>       0.86007458       0.55634829       0.18046819 </v>
   <v>       0.68107200       0.86046774       0.05575260 </v>
   <v>       0.93136114       0.80492582       0.11095065 </v>
   <v>       0.61067752       0.93165297       0.30547765 </v>
   <v>       0.80503784       0.61074302       0.43111591 </v>
   <v>       0.55556968       0.68082022       0.86090541 </v>
   <v>       0.86059508       0.55581627       0.68050717 </v>
   <v>       0.68097931       0.85972506       0.55655493 </v>
   <v>       0.93138973       0.80539064       0.61084254 </v>
   <v>       0.61024363       0.93134011       0.80571432 </v>
   <v>       0.80584636       0.61083297       0.93009391 </v>
   <v>       0.24862253       0.24992729       0.24762435 </v>
   <v>       0.24806756       0.74806531       0.24849505 </v>
   <v>       0.24752603       0.74745881       0.74934160 </v>
   <v>       0.74730972       0.24776208       0.24918815 </v>
   <v>       0.49682629       0.99767190       0.50015434 </v>
   <v>       0.74834988       0.24827406       0.74832874 </v>
  </varray>
 </structure>
 <calculation>
  <scstep>
   <time name="dav">   26.65   26.64</time>
   <time name="total">   26.82   26.82</time>
   <energy>
    <i name="alphaZ">   1727.30532944 </i>
    <i name="ewald"> -27261.25535038 </i>
    <i name="hartreedc"> -10415.85481299 </i>
    <i name="XCdc">   1474.95449279 </i>
    <i name="pawpsdc">  30201.20122080 </i>
    <i name="pawaedc"> -29545.67637776 </i>
    <i name="eentropy">      0.00000000 </i>
    <i name="bandstr">    427.68767028 </i>
    <i name="atom">  37080.84622879 </i>
    <i name="e_fr_energy">   3689.20840096 </i>
    <i name="e_wo_entrp">   3689.20840096 </i>
    <i name="e_0_energy">   3689.20840096 </i>
   </energy>
  </scstep>
  <scstep>
   <time name="dav">   40.07   40.07</time>
   <time name="total">   40.08   40.08</time>
   <energy>
    <i name="e_fr_energy">   -555.59074422 </i>
    <i name="e_wo_entrp">   -555.59074422 </i>
    <i name="e_0_energy">   -555.59074422 </i>
   </energy>
  </scstep>
  <scstep>
   <time name="dav">   39.59   39.59</time>
   <time name="total">   39.60   39.60</time>
   <energy>
    <i name="e_fr_energy">   -794.56156483 </i>
    <i name="e_wo_entrp">   -794.56156483 </i>
    <i name="e_0_energy">   -794.56156483 </i>
   </energy>
  </scstep>
  <scstep>
   <time name="dav">   46.21   46.21</time>
   <time name="total">   46.21   46.22</time>
   <energy>
    <i name="e_fr_energy">   -805.40646744 </i>
    <i name="e_wo_entrp">   -805.40646744 </i>
    <i name="e_0_energy">   -805.40646744 </i>
   </energy>
  </scstep>
  <scstep>
   <time name="dav">   41.08   41.10</time>
   <time name="total">   42.09   42.10</time>
   <energy>
    <i name="e_fr_energy">   -805.59660613 </i>
    <i name="e_wo_entrp">   -805.59660613 </i>
    <i name="e_0_energy">   -805.59660613 </i>
   </energy>
  </scstep>
  <scstep>
   <time name="diag">    3.95    3.95</time>
   <time name="diis">   13.96   13.96</time>
   <time name="orth">    0.54    0.54</time>
   <time name="total">   19.51   19.52</time>
   <energy>
    <i name="e_fr_energy">   -687.91338514 </i>
    <i name="e_wo_entrp">   -687.91338514 </i>
    <i name="e_0_energy">   -687.91338514 </i>
   </energy>
  </scstep>
  <scstep>
   <time name="diag">    3.94    3.94</time>
   <time name="diis">   16.06   16.06</time>
   <time name="orth">    0.54    0.54</time>
   <time name="total">   21.58   21.60</time>
   <energy>
    <i name="e_fr_energy">   -678.75412930 </i>
    <i name="e_wo_entrp">   -678.75412930 </i>
    <i name="e_0_energy">   -678.75412930 </i>
   </energy>
  </scstep>
  <scstep>
   <time name="diag">    3.94    3.94</time>
   <time name="diis">   16.47   16.46</time>
   <time name="orth">    0.54    0.54</time>
   <time name="total">   21.99   22.00</time>
   <energy>
    <i name="e_fr_energy">   -678.59250712 </i>
    <i name="e_wo_entrp">   -678.59250712 </i>
    <i name="e_0_energy">   -678.59250712 </i>
   </energy>
  </scstep>
  <scstep>
   <time name="diag">    3.95    3.95</time>
   <time name="diis">   18.27   18.26</time>
   <time name="orth">    0.55    0.55</time>
   <time name="total">   23.81   23.82</time>
   <energy>
    <i name="e_fr_energy">   -678.52421066 </i>
    <i name="e_wo_entrp">   -678.52421066 </i>
    <i name="e_0_energy">   -678.52421066 </i>
   </energy>
  </scstep>
  <scstep>
   <time name="diag">    3.93    3.93</time>
   <time name="diis">   18.48   18.48</time>
   <time name="orth">    0.54    0.54</time>
   <time name="total">   24.01   24.02</time>
   <energy>
    <i name="e_fr_energy">   -678.53678782 </i>
    <i name="e_wo_entrp">   -678.53678782 </i>
    <i name="e_0_energy">   -678.53678782 </i>
   </energy>
  </scstep>
  <scstep>
   <time name="diag">    3.95    3.95</time>
   <time name="diis">   19.49   19.48</time>
   <time name="orth">    0.54    0.54</time>
   <time name="total">   25.03   25.04</time>
   <energy>
    <i name="e_fr_energy">   -678.54736466 </i>
    <i name="e_wo_entrp">   -678.54736466 </i>
    <i name="e_0_energy">   -678.54736466 </i>
   </energy>
  </scstep>
  <scstep>
   <time name="diag">    3.93    3.93</time>
   <time name="diis">   19.42   19.42</time>
   <time name="orth">    0.54    0.54</time>
   <time name="total">   24.95   24.96</time>
   <energy>
    <i name="e_fr_energy">   -678.55071983 </i>
    <i name="e_wo_entrp">   -678.55071983 </i>
    <i name="e_0_energy">   -678.55071983 </i>
   </energy>
  </scstep>
  <scstep>
   <time name="diag">    3.94    3.94</time>
   <time name="diis">   19.60   19.60</time>
   <time name="orth">    0.54    0.54</time>
   <time name="total">   25.15   25.16</time>
   <energy>
    <i name="e_fr_energy">   -678.55179614 </i>
    <i name="e_wo_entrp">   -678.55179614 </i>
    <i name="e_0_energy">   -678.55179614 </i>
   </energy>
  </scstep>
  <scstep>
   <time name="diag">    3.94    3.94</time>
   <time name="diis">   19.70   19.70</time>
   <time name="orth">    0.54    0.54</time>
   <time name="total">   25.24   25.25</time>
   <energy>
    <i name="e_fr_energy">   -678.55226671 </i>
    <i name="e_wo_entrp">   -678.55226671 </i>
    <i name="e_0_energy">   -678.55226671 </i>
   </energy>
  </scstep>
  <scstep>
   <time name="diag">    3.94    3.94</time>
   <time name="diis">   19.49   19.48</time>
   <time name="orth">    0.54    0.54</time>
   <time name="total">   25.04   25.05</time>
   <energy>
    <i name="e_fr_energy">   -678.55246103 </i>
    <i name="e_wo_entrp">   -678.55246103 </i>
    <i name="e_0_energy">   -678.55246103 </i>
   </energy>
  </scstep>
  <scstep>
   <time name="diag">    3.93    3.93</time>
   <time name="diis">   18.82   18.82</time>
   <time name="orth">    0.54    0.54</time>
   <time name="total">   24.35   24.37</time>
   <energy>
    <i name="e_fr_energy">   -678.55253054 </i>
    <i name="e_wo_entrp">   -678.55253054 </i>
    <i name="e_0_energy">   -678.55253054 </i>
   </energy>
  </scstep>
  <scstep>
   <time name="diag">    3.94    3.94</time>
   <time name="diis">   19.25   19.25</time>
   <time name="orth">    0.54    0.54</time>
   <time name="total">   24.79   24.80</time>
   <energy>
    <i name="e_fr_energy">   -678.55256324 </i>
    <i name="e_wo_entrp">   -678.55256324 </i>
    <i name="e_0_energy">   -678.55256324 </i>
   </energy>
  </scstep>
  <scstep>
   <time name="diag">    3.93    3.93</time>
   <time name="diis">   18.11   18.11</time>
   <time name="orth">    0.54    0.54</time>
   <time name="total">   23.64   23.65</time>
   <energy>
    <i name="e_fr_energy">   -678.55257143 </i>
    <i name="e_wo_entrp">   -678.55257143 </i>
    <i name="e_0_energy">   -678.55257143 </i>
   </energy>
  </scstep>
  <scstep>
   <time name="diag">    3.95    3.95</time>
   <time name="diis">   17.56   17.56</time>
   <time name="orth">    0.54    0.54</time>
   <time name="total">   23.10   23.11</time>
   <energy>
    <i name="e_fr_energy">   -678.55257651 </i>
    <i name="e_wo_entrp">   -678.55257651 </i>
    <i name="e_0_energy">   -678.55257651 </i>
   </energy>
  </scstep>
  <scstep>
   <time name="diag">    3.94    3.94</time>
   <time name="diis">   16.72   16.72</time>
   <time name="orth">    0.54    0.54</time>
   <time name="total">   22.26   22.27</time>
   <energy>
    <i name="e_fr_energy">   -678.55257803 </i>
    <i name="e_wo_entrp">   -678.55257803 </i>
    <i name="e_0_energy">   -678.55257803 </i>
   </energy>
  </scstep>
  <scstep>
   <time name="diag">    3.93    3.93</time>
   <time name="diis">   15.79   15.79</time>
   <time name="orth">    0.54    0.54</time>
   <time name="total">   20.33   20.34</time>
   <energy>
    <i name="alphaZ">   1727.30532944 </i>
    <i name="ewald"> -27261.25535038 </i>
    <i name="hartreedc"> -10850.42707592 </i>
    <i name="XCdc">   1524.63027610 </i>
    <i name="pawpsdc">  48937.07676502 </i>
    <i name="pawaedc"> -48264.91121953 </i>
    <i name="eentropy">      0.00000000 </i>
    <i name="bandstr">  -3571.81753223 </i>
    <i name="atom">  37080.84622879 </i>
    <i name="e_fr_energy">   -678.55257872 </i>
    <i name="e_wo_entrp">   -678.55257872 </i>
    <i name="e_0_energy">   -678.55257872 </i>
   </energy>
  </scstep>
  <structure>
   <crystal>
    <varray name="basis" >
     <v>       5.04654780      -2.91206231       9.03562475 </v>
     <v>       0.00242297       5.82567956       9.03477949 </v>
     <v>      -5.04399348      -2.91338537       9.03377877 </v>
    </varray>
    <i name="volume">    796.63906048 </i>
    <varray name="rec_basis" >
     <v>       0.09910347      -0.05723201       0.03687696 </v>
     <v>      -0.00002175       0.11443706       0.03689370 </v>
     <v>      -0.09910196      -0.05720602       0.03691336 </v>
    </varray>
   </crystal>
   <varray name="positions" >
    <v>       0.13834752       0.13936271       0.13984335 </v>
    <v>       0.39146324       0.38999630       0.39085144 </v>
    <v>       0.14028321       0.14032414       0.64092124 </v>
    <v>       0.39173469       0.39088444       0.89059988 </v>
    <v>       0.14005761       0.63914415       0.13990376 </v>
    <v>       0.38998511       0.89022976       0.39046082 </v>
    <v>       0.14027342       0.63856692       0.63942290 </v>
    <v>       0.39066873       0.89122478       0.89017412 </v>
    <v>       0.63968950       0.14081636       0.13851063 </v>
    <v>       0.89081879       0.39199278       0.39127564 </v>
    <v>       0.64044608       0.13979598       0.63895884 </v>
    <v>       0.89104424       0.39188824       0.88993991 </v>
    <v>       0.63987068       0.64050964       0.14005521 </v>
    <v>       0.88952244       0.89019616       0.39154151 </v>
    <v>       0.64095434       0.64008558       0.64144699 </v>
    <v>       0.89103108       0.89076076       0.89134632 </v>
    <v>       0.99959237       0.00150112       0.99675172 </v>
    <v>       0.99938324       0.00003493       0.49763958 </v>
    <v>       0.25168038       0.24891337       0.74959517 </v>
    <v>       0.99749990       0.49794372       0.00086033 </v>
    <v>       0.00052440       0.49715140       0.50088067 </v>
    <v>       0.49988249       0.99738472       0.00090131 </v>
    <v>       0.49954620       0.50003968       0.99785757 </v>
    <v>       0.75097315       0.74942469       0.24984287 </v>
    <v>       0.49985523       0.50129758       0.49655071 </v>
    <v>       0.74940214       0.75095878       0.74802348 </v>
    <v>       0.05623360       0.18120304       0.36059596 </v>
    <v>       0.36055215       0.05618073       0.18135900 </v>
    <v>       0.18067803       0.36043515       0.05635112 </v>
    <v>       0.43164615       0.30579781       0.11007695 </v>
    <v>       0.10933811       0.43208088       0.30572184 </v>
    <v>       0.30616879       0.11038237       0.43144631 </v>
    <v>       0.05540035       0.18155956       0.86034038 </v>
    <v>       0.35943918       0.05639020       0.68203455 </v>
    <v>       0.18159346       0.36067916       0.55556672 </v>
    <v>       0.43176800       0.30520898       0.61104129 </v>
    <v>       0.11066152       0.43074915       0.80539644 </v>
    <v>       0.30515946       0.11079423       0.93190663 </v>
    <v>       0.05604537       0.68076856       0.36081137 </v>
    <v>       0.36061507       0.55618152       0.18081868 </v>
    <v>       0.18040413       0.86090372       0.05629587 </v>
    <v>       0.43096027       0.80670950       0.10983535 </v>
    <v>       0.11018018       0.93120277       0.30647725 </v>
    <v>       0.30631393       0.60963452       0.43142758 </v>
    <v>       0.05642617       0.67983109       0.86072292 </v>
    <v>       0.36082901       0.55621291       0.68039936 </v>
    <v>       0.18050111       0.86073339       0.55625759 </v>
    <v>       0.43105925       0.80638098       0.60992686 </v>
    <v>       0.10974163       0.93076687       0.80662904 </v>
    <v>       0.30592914       0.60973059       0.93157562 </v>
    <v>       0.55668960       0.18089021       0.36049958 </v>
    <v>       0.86099568       0.05588109       0.18065345 </v>
    <v>       0.68094161       0.36072792       0.05606070 </v>
    <v>       0.93094987       0.30643726       0.10970186 </v>
    <v>       0.61015919       0.43137998       0.30635721 </v>
    <v>       0.80662739       0.10979363       0.43135599 </v>
    <v>       0.55625493       0.18016866       0.86082204 </v>
    <v>       0.86060460       0.05601788       0.68054061 </v>
    <v>       0.68056339       0.36084158       0.55626059 </v>
    <v>       0.93128773       0.30623948       0.60979445 </v>
    <v>       0.61008613       0.43101265       0.80636497 </v>
    <v>       0.80623116       0.10929440       0.93147945 </v>
    <v>       0.55554077       0.68183433       0.36007734 </v>
    <v>       0.86007458       0.55634829       0.18046819 </v>
    <v>       0.68107200       0.86046774       0.05575260 </v>
    <v>       0.93136114       0.80492582       0.11095065 </v>
    <v>       0.61067752       0.93165297       0.30547765 </v>
    <v>       0.80503784       0.61074302       0.43111591 </v>
    <v>       0.55556968       0.68082022       0.86090541 </v>
    <v>       0.86059508       0.55581627       0.68050717 </v>
    <v>       0.68097931       0.85972506       0.55655493 </v>
    <v>       0.93138973       0.80539064       0.61084254 </v>
    <v>       0.61024363       0.93134011       0.80571432 </v>
    <v>       0.80584636       0.61083297       0.93009391 </v>
    <v>       0.24862253       0.24992729       0.24762435 </v>
    <v>       0.24806756       0.74806531       0.24849505 </v>
    <v>       0.24752603       0.74745881       0.74934160 </v>
    <v>       0.74730972       0.24776208       0.24918815 </v>
    <v>       0.49682629       0.99767190       0.50015434 </v>
    <v>       0.74834988       0.24827406       0.74832874 </v>
   </varray>
  </structure>
  <varray name="forces" >
   <v>       0.00224077      -0.00032563       0.01686214 </v>
   <v>      -0.00263646       0.00300673       0.00404152 </v>
   <v>      -0.00183582       0.00124346       0.00820553 </v>
   <v>      -0.00346202       0.00088991      -0.00330295 </v>
   <v>      -0.00015380       0.00255791       0.01390201 </v>
   <v>       0.00260261      -0.00050440       0.00461621 </v>
   <v>      -0.00207747       0.00290015       0.01354076 </v>
   <v>      -0.00084478      -0.00136393       0.00576758 </v>
   <v>       0.00051247      -0.00428959       0.01231596 </v>
   <v>       0.00163981       0.00092957      -0.00354616 </v>
   <v>      -0.00316195      -0.00215938       0.01280461 </v>
   <v>      -0.00080466      -0.00241368       0.00096640 </v>
   <v>       0.00136904      -0.00038595       0.01077778 </v>
   <v>       0.00270897      -0.00113737       0.00490772 </v>
   <v>       0.00056406       0.00143275       0.00431511 </v>
   <v>      -0.00083381      -0.00117404      -0.00204251 </v>
   <v>      -0.04591390      -0.06944858      -0.38502017 </v>
   <v>      -0.02181590      -0.02583268      -0.34991248 </v>
   <v>      -0.03087791       0.02219648      -0.43150138 </v>
   <v>       0.06313288       0.01913085      -0.36057777 </v>
   <v>       0.01660208       0.07310520      -0.40462973 </v>
   <v>      -0.00237024       0.06019869      -0.38838337 </v>
   <v>      -0.03422574      -0.03950634      -0.36561490 </v>
   <v>      -0.02450770       0.04065060      -0.44915451 </v>
   <v>      -0.04696971      -0.05766527      -0.36522970 </v>
   <v>      -0.01960876      -0.02885853      -0.40223577 </v>
   <v>       0.05687227       0.63389763       0.08005777 </v>
   <v>      -0.56963748      -0.25740393       0.06317020 </v>
   <v>       0.52360740      -0.32579796       0.04240483 </v>
   <v>       0.68956855      -0.20133777       0.18853449 </v>
   <v>      -0.17787106       0.69174742       0.17249604 </v>
   <v>      -0.53654029      -0.36286750       0.07349738 </v>
   <v>       0.18871781       0.68922894       0.18690308 </v>
   <v>      -0.67291327      -0.19615821       0.16895229 </v>
   <v>       0.50349101      -0.49079768       0.17206544 </v>
   <v>       0.67208488      -0.17982304       0.16846701 </v>
   <v>      -0.15028461       0.65328009       0.13226073 </v>
   <v>      -0.50229877      -0.47212227       0.15085940 </v>
   <v>       0.01624417       0.60968367       0.02890654 </v>
   <v>      -0.54177052      -0.29114435       0.03896067 </v>
   <v>       0.50436821      -0.33607379       0.04068428 </v>
   <v>       0.63732164      -0.21451665       0.13874669 </v>
   <v>      -0.13098433       0.66175791       0.14693016 </v>
   <v>      -0.50871277      -0.45877723       0.15005011 </v>
   <v>       0.01613707       0.59490206       0.02458979 </v>
   <v>      -0.53835533      -0.29372403       0.03700683 </v>
   <v>       0.50874549      -0.34558790       0.05583047 </v>
   <v>       0.56851769      -0.29460994       0.05776551 </v>
   <v>      -0.13594167       0.67254220       0.15595656 </v>
   <v>      -0.51049183      -0.47571398       0.16986046 </v>
   <v>       0.02782784       0.62720877       0.05235171 </v>
   <v>      -0.54842137      -0.29147938       0.04695460 </v>
   <v>       0.51676298      -0.33743964       0.05146303 </v>
   <v>       0.61834881      -0.22616536       0.12316013 </v>
   <v>      -0.12417214       0.66376200       0.14766298 </v>
   <v>      -0.50664887      -0.45150969       0.14996423 </v>
   <v>       0.03500546       0.61396440       0.04254336 </v>
   <v>      -0.55474271      -0.28262734       0.05203628 </v>
   <v>       0.50291186      -0.33726877       0.04264655 </v>
   <v>       0.65070474      -0.21140564       0.15212063 </v>
   <v>      -0.14154766       0.67519294       0.15633688 </v>
   <v>      -0.51164393      -0.45886433       0.14827237 </v>
   <v>       0.17646386       0.67658270       0.17364218 </v>
   <v>      -0.65258610      -0.18450586       0.15682541 </v>
   <v>       0.50082726      -0.48972569       0.16850496 </v>
   <v>       0.68914721      -0.17734387       0.17682394 </v>
   <v>      -0.05796236       0.63826457       0.06274502 </v>
   <v>      -0.50731013      -0.50712323       0.17581510 </v>
   <v>       0.16508606       0.67065747       0.16688924 </v>
   <v>      -0.65638327      -0.17955773       0.14961552 </v>
   <v>       0.51604388      -0.45353100       0.14907142 </v>
   <v>       0.64791154      -0.20723739       0.15048170 </v>
   <v>      -0.15296469       0.65266718       0.13758567 </v>
   <v>      -0.48631114      -0.42299984       0.11643909 </v>
   <v>      -0.02325328      -0.03237690      -0.32743148 </v>
   <v>       0.00501624       0.00232991      -0.29506778 </v>
   <v>       0.03547698       0.01004804      -0.29846875 </v>
   <v>       0.03191648       0.00223233      -0.27830639 </v>
   <v>       0.04618222       0.02281866      -0.28408065 </v>
   <v>      -0.00083211      -0.00832794      -0.31342564 </v>
  </varray>
  <varray name="stress" >
   <v>     133.90453109       0.05551308       0.04750250 </v>
   <v>       0.05551315     133.84187150       0.01772303 </v>
   <v>       0.04750285       0.01772315     120.60718733 </v>
  </varray>
  <energy>
   <i name="e_fr_energy">   -678.55257872 </i>
   <i name="e_wo_entrp">   -678.55257872 </i>
   <i name="e_0_energy">      0.00000000 </i>
  </energy>
  <time name="totalsc">  604.18  604.42</time>
 </calculation>
 <calculation>
  <scstep>
   <time name="dav">   32.80   32.80</time>
   <time name="total">   33.86   33.86</time>
   <energy>
    <i name="alphaZ">   1727.30532944 </i>
    <i name="ewald"> -27303.11775070 </i>
    <i name="hartreedc"> -10817.85016844 </i>
    <i name="XCdc">   1524.18367846 </i>
    <i name="pawpsdc">  48937.29821769 </i>
    <i name="pawaedc"> -48265.10280441 </i>
    <i name="eentropy">      0.00000000 </i>
    <i name="bandstr">  -3562.35539996 </i>
    <i name="atom">  37080.84622879 </i>
    <i name="e_fr_energy">   -678.79266914 </i>
    <i name="e_wo_entrp">   -678.79266914 </i>
    <i name="e_0_energy">   -678.79266914 </i>
   </energy>
  </scstep>
  <scstep>
   <time name="diag">    3.94    3.94</time>
   <time name="diis">   13.23   13.23</time>
   <time name="orth">    0.54    0.54</time>
   <time name="total">   18.75   18.77</time>
   <energy>
    <i name="e_fr_energy">   -678.84785193 </i>
    <i name="e_wo_entrp">   -678.84785193 </i>
    <i name="e_0_energy">   -678.84785193 </i>
   </energy>
  </scstep>
  <scstep>
   <time name="diag">    3.92    3.92</time>
   <time name="diis">   15.76   15.76</time>
   <time name="orth">    0.54    0.54</time>
   <time name="total">   21.26   21.26</time>
   <energy>
    <i name="e_fr_energy">   -678.84058134 </i>
    <i name="e_wo_entrp">   -678.84058134 </i>
    <i name="e_0_energy">   -678.84058134 </i>
   </energy>
  </scstep>
  <scstep>
   <time name="diag">    3.94    3.94</time>
   <time name="diis">   19.75   19.75</time>
   <time name="orth">    0.54    0.54</time>
   <time name="total">   25.27   25.29</time>
   <energy>
    <i name="e_fr_energy">   -678.84065597 </i>
    <i name="e_wo_entrp">   -678.84065597 </i>
    <i name="e_0_energy">   -678.84065597 </i>
   </energy>
  </scstep>
  <scstep>
   <time name="diag">    3.92    3.92</time>
   <time name="diis">   19.51   19.50</time>
   <time name="orth">    0.54    0.54</time>
   <time name="total">   25.01   25.02</time>
   <energy>
    <i name="e_fr_energy">   -678.84069501 </i>
    <i name="e_wo_entrp">   -678.84069501 </i>
    <i name="e_0_energy">   -678.84069501 </i>
   </energy>
  </scstep>
  <scstep>
   <time name="diag">    3.93    3.93</time>
   <time name="diis">   20.32   20.32</time>
   <time name="orth">    0.54    0.54</time>
   <time name="total">   25.83   25.84</time>
   <energy>
    <i name="e_fr_energy">   -678.84076842 </i>
    <i name="e_wo_entrp">   -678.84076842 </i>
    <i name="e_0_energy">   -678.84076842 </i>
   </energy>
  </scstep>
  <scstep>
   <time name="diag">    3.91    3.91</time>
   <time name="diis">   20.33   20.32</time>
   <time name="orth">    0.54    0.54</time>
   <time name="total">   25.83   25.83</time>
   <energy>
    <i name="e_fr_energy">   -678.84078183 </i>
    <i name="e_wo_entrp">   -678.84078183 </i>
    <i name="e_0_energy">   -678.84078183 </i>
   </energy>
  </scstep>
  <scstep>
   <time name="diag">    3.92    3.92</time>
   <time name="diis">   19.87   19.87</time>
   <time name="orth">    0.54    0.54</time>
   <time name="total">   25.37   25.38</time>
   <energy>
    <i name="e_fr_energy">   -678.84078997 </i>
    <i name="e_wo_entrp">   -678.84078997 </i>
    <i name="e_0_energy">   -678.84078997 </i>
   </energy>
  </scstep>
  <scstep>
   <time name="diag">    3.93    3.93</time>
   <time name="diis">   18.63   18.62</time>
   <time name="orth">    0.54    0.54</time>
   <time name="total">   24.13   24.14</time>
   <energy>
    <i name="e_fr_energy">   -679.08366444 </i>
    <i name="e_wo_entrp">   -679.08366444 </i>
    <i name="e_0_energy">   -679.08366444 </i>
   </energy>
  </scstep>
  <scstep>
   <time name="diag">    3.91    3.91</time>
   <time name="diis">   17.04   17.04</time>
   <time name="orth">    0.54    0.54</time>
   <time name="total">   22.54   22.55</time>
   <energy>
    <i name="e_fr_energy">   -678.83881124 </i>
    <i name="e_wo_entrp">   -678.83881124 </i>
    <i name="e_0_energy">   -678.83881124 </i>
   </energy>
  </scstep>
  <scstep>
   <time name="diag">    3.91    3.91</time>
   <time name="diis">   16.02   16.02</time>
   <time name="orth">    0.54    0.54</time>
   <time name="total">   21.51   21.52</time>
   <energy>
    <i name="e_fr_energy">   -678.83961896 </i>
    <i name="e_wo_entrp">   -678.83961896 </i>
    <i name="e_0_energy">   -678.83961896 </i>
   </energy>
  </scstep>
  <scstep>
   <time name="diag">    3.91    3.91</time>
   <time name="diis">   12.11   12.11</time>
   <time name="orth">    0.54    0.54</time>
   <time name="total">   17.62   17.63</time>
   <energy>
    <i name="e_fr_energy">   -678.84046567 </i>
    <i name="e_wo_entrp">   -678.84046567 </i>
    <i name="e_0_energy">   -678.84046567 </i>
   </energy>
  </scstep>
  <scstep>
   <time name="diag">    3.92    3.92</time>
   <time name="diis">   10.08   10.08</time>
   <time name="orth">    0.54    0.54</time>
   <time name="total">   15.58   15.59</time>
   <energy>
    <i name="e_fr_energy">   -681.13161101 </i>
    <i name="e_wo_entrp">   -681.13161101 </i>
    <i name="e_0_energy">   -681.13161101 </i>
   </energy>
  </scstep>
  <scstep>
   <time name="diag">    3.92    3.92</time>
   <time name="diis">   13.07   13.07</time>
   <time name="orth">    0.54    0.54</time>
   <time name="total">   18.63   18.64</time>
   <energy>
    <i name="e_fr_energy">   -678.06905989 </i>
    <i name="e_wo_entrp">   -678.06905989 </i>
    <i name="e_0_energy">   -678.06905989 </i>
   </energy>
  </scstep>
  <scstep>
   <time name="diag">    3.93    3.93</time>
   <time name="diis">   15.19   15.19</time>
   <time name="orth">    0.54    0.54</time>
   <time name="total">   20.75   20.76</time>
   <energy>
    <i name="e_fr_energy">   -678.06838493 </i>
    <i name="e_wo_entrp">   -678.06838493 </i>
    <i name="e_0_energy">   -678.06838493 </i>
   </energy>
  </scstep>
  <scstep>
   <time name="diag">    3.92    3.92</time>
   <time name="diis">   15.55   15.55</time>
   <time name="orth">    0.54    0.54</time>
   <time name="total">   21.10   21.11</time>
   <energy>
    <i name="e_fr_energy">   -678.06831971 </i>
    <i name="e_wo_entrp">   -678.06831971 </i>
    <i name="e_0_energy">   -678.06831971 </i>
   </energy>
  </scstep>
  <scstep>
   <time name="diag">    3.92    3.92</time>
   <time name="diis">   15.10   15.10</time>
   <time name="orth">    0.54    0.54</time>
   <time name="total">   20.66   20.67</time>
   <energy>
    <i name="e_fr_energy">   -678.21386744 </i>
    <i name="e_wo_entrp">   -678.21386744 </i>
    <i name="e_0_energy">   -678.21386744 </i>
   </energy>
  </scstep>
  <scstep>
   <time name="diag">    3.91    3.91</time>
   <time name="diis">   14.43   14.43</time>
   <time name="orth">    0.54    0.54</time>
   <time name="total">   19.99   20.00</time>
   <energy>
    <i name="e_fr_energy">   -678.45048573 </i>
    <i name="e_wo_entrp">   -678.45048573 </i>
    <i name="e_0_energy">   -678.45048573 </i>
   </energy>
  </scstep>
  <scstep>
   <time name="diag">    3.91    3.91</time>
   <time name="diis">    9.47    9.47</time>
   <time name="orth">    0.54    0.54</time>
   <time name="total">   15.02   15.03</time>
   <energy>
    <i name="e_fr_energy">   -678.47951867 </i>
    <i name="e_wo_entrp">   -678.47951867 </i>
    <i name="e_0_energy">   -678.47951867 </i>
   </energy>
  </scstep>
  <scstep>
   <time name="diag">    3.91    3.91</time>
   <time name="diis">   10.29   10.29</time>
   <time name="orth">    0.54    0.54</time>
   <time name="total">   15.84   15.85</time>
   <energy>
    <i name="e_fr_energy">   -678.49263859 </i>
    <i name="e_wo_entrp">   -678.49263859 </i>
    <i name="e_0_energy">   -678.49263859 </i>
   </energy>
  </scstep>
  <scstep>
   <time name="diag">    3.91    3.91</time>
   <time name="diis">   14.90   14.89</time>
   <time name="orth">    0.54    0.54</time>
   <time name="total">   20.41   20.41</time>
   <energy>
    <i name="e_fr_energy">   -678.77778880 </i>
    <i name="e_wo_entrp">   -678.77778880 </i>
    <i name="e_0_energy">   -678.77778880 </i>
   </energy>
  </scstep>
  <scstep>
   <time name="diag">    3.92    3.92</time>
   <time name="diis">   16.36   16.36</time>
   <time name="orth">    0.54    0.54</time>
   <time name="total">   21.88   21.89</time>
   <energy>
    <i name="e_fr_energy">   -678.82528660 </i>
    <i name="e_wo_entrp">   -678.82528660 </i>
    <i name="e_0_energy">   -678.82528660 </i>
   </energy>
  </scstep>
  <scstep>
   <time name="diag">    3.91    3.91</time>
   <time name="diis">   16.72   16.72</time>
   <time name="orth">    0.54    0.54</time>
   <time name="total">   22.23   22.24</time>
   <energy>
    <i name="e_fr_energy">   -678.83479187 </i>
    <i name="e_wo_entrp">   -678.83479187 </i>
    <i name="e_0_energy">   -678.83479187 </i>
   </energy>
  </scstep>
  <scstep>
   <time name="diag">    3.92    3.92</time>
   <time name="diis">   16.95   16.94</time>
   <time name="orth">    0.54    0.54</time>
   <time name="total">   22.46   22.47</time>
   <energy>
    <i name="e_fr_energy">   -678.83865616 </i>
    <i name="e_wo_entrp">   -678.83865616 </i>
    <i name="e_0_energy">   -678.83865616 </i>
   </energy>
  </scstep>
  <scstep>
   <time name="diag">    3.94    3.94</time>
   <time name="diis">   17.53   17.53</time>
   <time name="orth">    0.54    0.54</time>
   <time name="total">   23.06   23.07</time>
   <energy>
    <i name="e_fr_energy">   -678.83988519 </i>
    <i name="e_wo_entrp">   -678.83988519 </i>
    <i name="e_0_energy">   -678.83988519 </i>
   </energy>
  </scstep>
  <scstep>
   <time name="diag">    3.92    3.92</time>
   <time name="diis">   15.47   15.47</time>
   <time name="orth">    0.54    0.54</time>
   <time name="total">   20.98   21.00</time>
   <energy>
    <i name="e_fr_energy">   -678.84046198 </i>
    <i name="e_wo_entrp">   -678.84046198 </i>
    <i name="e_0_energy">   -678.84046198 </i>
   </energy>
[...]
       <r>    2.1685    1.0000 </r>
       <r>    2.2167    1.0000 </r>
       <r>    2.2398    1.0000 </r>
       <r>    2.2494    1.0000 </r>
       <r>    2.3533    1.0000 </r>
       <r>    2.3686    1.0000 </r>
       <r>    2.3746    1.0000 </r>
       <r>    2.3863    1.0000 </r>
       <r>    2.4012    1.0000 </r>
       <r>    2.4096    1.0000 </r>
       <r>    2.4259    1.0000 </r>
       <r>    2.4682    1.0000 </r>
       <r>    2.4775    1.0000 </r>
       <r>    2.4943    1.0000 </r>
       <r>    2.5035    1.0000 </r>
       <r>    2.5348    1.0000 </r>
       <r>    2.5486    1.0000 </r>
       <r>    2.5600    1.0000 </r>
       <r>    2.5878    1.0000 </r>
       <r>    2.6163    1.0000 </r>
       <r>    2.6388    1.0000 </r>
       <r>    2.6720    1.0000 </r>
       <r>    2.6812    1.0000 </r>
       <r>    2.7145    1.0000 </r>
       <r>    2.7202    1.0000 </r>
       <r>    2.7517    1.0000 </r>
       <r>    2.7643    1.0000 </r>
       <r>    2.7735    1.0000 </r>
       <r>    2.7860    1.0000 </r>
       <r>    2.8177    1.0000 </r>
       <r>    2.8251    1.0000 </r>
       <r>    2.8450    1.0000 </r>
       <r>    2.8987    1.0000 </r>
       <r>    2.9152    1.0000 </r>
       <r>    2.9588    1.0000 </r>
       <r>    2.9680    1.0000 </r>
       <r>    3.0657    1.0000 </r>
       <r>    3.0794    1.0000 </r>
       <r>    3.0867    1.0000 </r>
       <r>    3.0921    1.0000 </r>
       <r>    3.0971    1.0000 </r>
       <r>    3.1378    1.0000 </r>
       <r>    3.1450    1.0000 </r>
       <r>    3.1512    1.0000 </r>
       <r>    3.1647    1.0000 </r>
       <r>    3.1923    1.0000 </r>
       <r>    7.0223    0.0000 </r>
       <r>    7.0682    0.0000 </r>
       <r>    7.1294    0.0000 </r>
       <r>    7.1518    0.0000 </r>
       <r>    7.1909    0.0000 </r>
       <r>    7.2183    0.0000 </r>
       <r>    7.2494    0.0000 </r>
       <r>    7.2590    0.0000 </r>
       <r>    7.3014    0.0000 </r>
       <r>    7.3262    0.0000 </r>
       <r>    7.3534    0.0000 </r>
       <r>    7.4018    0.0000 </r>
       <r>    7.4210    0.0000 </r>
       <r>    7.4779    0.0000 </r>
       <r>    7.4949    0.0000 </r>
       <r>    7.5600    0.0000 </r>
       <r>    7.5917    0.0000 </r>
       <r>    7.7597    0.0000 </r>
       <r>    7.8238    0.0000 </r>
       <r>    7.8363    0.0000 </r>
       <r>    7.8658    0.0000 </r>
       <r>    7.9335    0.0000 </r>
       <r>    8.0311    0.0000 </r>
       <r>    8.0588    0.0000 </r>
       <r>    8.1675    0.0000 </r>
       <r>    8.2250    0.0000 </r>
       <r>    8.2636    0.0000 </r>
       <r>    8.3207    0.0000 </r>
       <r>    8.3459    0.0000 </r>
       <r>    8.3875    0.0000 </r>
       <r>    8.4693    0.0000 </r>
       <r>    8.4787    0.0000 </r>
       <r>    8.5892    0.0000 </r>
       <r>    8.6574    0.0000 </r>
       <r>    8.6706    0.0000 </r>
       <r>    8.7045    0.0000 </r>
       <r>    8.7267    0.0000 </r>
       <r>    8.7572    0.0000 </r>
       <r>    8.7693    0.0000 </r>
       <r>    8.8609    0.0000 </r>
       <r>    8.9374    0.0000 </r>
       <r>    8.9822    0.0000 </r>
       <r>    9.0307    0.0000 </r>
       <r>    9.0526    0.0000 </r>
       <r>    9.0792    0.0000 </r>
       <r>    9.1190    0.0000 </r>
       <r>    9.1451    0.0000 </r>
       <r>    9.2394    0.0000 </r>
       <r>   11.2400    0.0000 </r>
       <r>   11.3469    0.0000 </r>
       <r>   11.4040    0.0000 </r>
       <r>   11.4544    0.0000 </r>
       <r>   11.5320    0.0000 </r>
       <r>   11.5807    0.0000 </r>
       <r>   11.6276    0.0000 </r>
       <r>   11.6792    0.0000 </r>
      </set>
      <set comment="kpoint 36">
       <r>  -50.7914    1.0000 </r>
       <r>  -50.7911    1.0000 </r>
       <r>  -50.7752    1.0000 </r>
       <r>  -50.7694    1.0000 </r>
       <r>  -50.7594    1.0000 </r>
       <r>  -50.7535    1.0000 </r>
       <r>  -50.7392    1.0000 </r>
       <r>  -50.7357    1.0000 </r>
       <r>  -50.7319    1.0000 </r>
       <r>  -50.7111    1.0000 </r>
       <r>  -27.1504    1.0000 </r>
       <r>  -27.1477    1.0000 </r>
       <r>  -27.1434    1.0000 </r>
       <r>  -27.1369    1.0000 </r>
       <r>  -27.1326    1.0000 </r>
       <r>  -27.1284    1.0000 </r>
       <r>  -27.1175    1.0000 </r>
       <r>  -27.1041    1.0000 </r>
       <r>  -27.0921    1.0000 </r>
       <r>  -27.0828    1.0000 </r>
       <r>  -27.0687    1.0000 </r>
       <r>  -27.0656    1.0000 </r>
       <r>  -27.0599    1.0000 </r>
       <r>  -27.0572    1.0000 </r>
       <r>  -27.0556    1.0000 </r>
       <r>  -27.0395    1.0000 </r>
       <r>  -27.0338    1.0000 </r>
       <r>  -27.0322    1.0000 </r>
       <r>  -27.0231    1.0000 </r>
       <r>  -27.0187    1.0000 </r>
       <r>  -26.9971    1.0000 </r>
       <r>  -26.9954    1.0000 </r>
       <r>  -26.9852    1.0000 </r>
       <r>  -26.9625    1.0000 </r>
       <r>  -26.9591    1.0000 </r>
       <r>  -26.9546    1.0000 </r>
       <r>  -26.9421    1.0000 </r>
       <r>  -26.9163    1.0000 </r>
       <r>  -26.9119    1.0000 </r>
       <r>  -26.8974    1.0000 </r>
       <r>  -13.8445    1.0000 </r>
       <r>  -13.7898    1.0000 </r>
       <r>  -13.5342    1.0000 </r>
       <r>  -13.4860    1.0000 </r>
       <r>  -13.4809    1.0000 </r>
       <r>  -13.4081    1.0000 </r>
       <r>  -13.3743    1.0000 </r>
       <r>  -13.3492    1.0000 </r>
       <r>  -13.1832    1.0000 </r>
       <r>  -13.1491    1.0000 </r>
       <r>  -13.1361    1.0000 </r>
       <r>  -13.1289    1.0000 </r>
       <r>  -13.1262    1.0000 </r>
       <r>  -13.1118    1.0000 </r>
       <r>  -13.0578    1.0000 </r>
       <r>  -13.0506    1.0000 </r>
       <r>  -13.0501    1.0000 </r>
       <r>  -13.0312    1.0000 </r>
       <r>  -12.9924    1.0000 </r>
       <r>  -12.9820    1.0000 </r>
       <r>  -12.9729    1.0000 </r>
       <r>  -12.9620    1.0000 </r>
       <r>  -12.9555    1.0000 </r>
       <r>  -12.9422    1.0000 </r>
       <r>  -12.5771    1.0000 </r>
       <r>  -12.5296    1.0000 </r>
       <r>  -12.4998    1.0000 </r>
       <r>  -12.4817    1.0000 </r>
       <r>  -12.4636    1.0000 </r>
       <r>  -12.4600    1.0000 </r>
       <r>  -12.4493    1.0000 </r>
       <r>  -12.4357    1.0000 </r>
       <r>  -12.4172    1.0000 </r>
       <r>  -12.3997    1.0000 </r>
       <r>  -12.3873    1.0000 </r>
       <r>  -12.3643    1.0000 </r>
       <r>  -12.3616    1.0000 </r>
       <r>  -12.3182    1.0000 </r>
       <r>  -12.3067    1.0000 </r>
       <r>  -12.2901    1.0000 </r>
       <r>  -12.2878    1.0000 </r>
       <r>  -12.2813    1.0000 </r>
       <r>  -12.2740    1.0000 </r>
       <r>  -12.2132    1.0000 </r>
       <r>  -12.1543    1.0000 </r>
       <r>  -12.1301    1.0000 </r>
       <r>  -12.1043    1.0000 </r>
       <r>  -12.0970    1.0000 </r>
       <r>   -1.4786    1.0000 </r>
       <r>   -1.4685    1.0000 </r>
       <r>   -1.4661    1.0000 </r>
       <r>   -1.4328    1.0000 </r>
       <r>   -1.3843    1.0000 </r>
       <r>   -1.3543    1.0000 </r>
       <r>   -1.3427    1.0000 </r>
       <r>   -1.3034    1.0000 </r>
       <r>   -1.3007    1.0000 </r>
       <r>   -1.2934    1.0000 </r>
       <r>   -1.2863    1.0000 </r>
       <r>   -1.2810    1.0000 </r>
       <r>   -1.2764    1.0000 </r>
       <r>   -1.2742    1.0000 </r>
       <r>   -1.2458    1.0000 </r>
       <r>   -1.2382    1.0000 </r>
       <r>   -1.2020    1.0000 </r>
       <r>   -1.1668    1.0000 </r>
       <r>   -1.1615    1.0000 </r>
       <r>   -1.1545    1.0000 </r>
       <r>   -1.1480    1.0000 </r>
       <r>   -1.1290    1.0000 </r>
       <r>   -1.0672    1.0000 </r>
       <r>   -1.0363    1.0000 </r>
       <r>   -1.0100    1.0000 </r>
       <r>   -0.9624    1.0000 </r>
       <r>   -0.9510    1.0000 </r>
       <r>   -0.9306    1.0000 </r>
       <r>   -0.9033    1.0000 </r>
       <r>   -0.8792    1.0000 </r>
       <r>   -0.7240    1.0000 </r>
       <r>   -0.7216    1.0000 </r>
       <r>   -0.6990    1.0000 </r>
       <r>   -0.6962    1.0000 </r>
       <r>   -0.2781    1.0000 </r>
       <r>   -0.2593    1.0000 </r>
       <r>   -0.2489    1.0000 </r>
       <r>   -0.2399    1.0000 </r>
       <r>   -0.2322    1.0000 </r>
       <r>   -0.2205    1.0000 </r>
       <r>   -0.1818    1.0000 </r>
       <r>   -0.0905    1.0000 </r>
       <r>    0.0608    1.0000 </r>
       <r>    0.0816    1.0000 </r>
       <r>    0.0830    1.0000 </r>
       <r>    0.0957    1.0000 </r>
       <r>    0.0988    1.0000 </r>
       <r>    0.1078    1.0000 </r>
       <r>    0.3497    1.0000 </r>
       <r>    0.3683    1.0000 </r>
       <r>    0.3803    1.0000 </r>
       <r>    0.3929    1.0000 </r>
       <r>    0.4024    1.0000 </r>
       <r>    0.4133    1.0000 </r>
       <r>    0.4775    1.0000 </r>
       <r>    0.4834    1.0000 </r>
       <r>    0.5108    1.0000 </r>
       <r>    0.5169    1.0000 </r>
       <r>    0.5229    1.0000 </r>
       <r>    0.5328    1.0000 </r>
       <r>    0.6125    1.0000 </r>
       <r>    0.6305    1.0000 </r>
       <r>    0.6407    1.0000 </r>
       <r>    0.6471    1.0000 </r>
       <r>    0.6536    1.0000 </r>
       <r>    0.6578    1.0000 </r>
       <r>    1.0246    1.0000 </r>
       <r>    1.0337    1.0000 </r>
       <r>    1.0467    1.0000 </r>
       <r>    1.0702    1.0000 </r>
       <r>    1.0765    1.0000 </r>
       <r>    1.0966    1.0000 </r>
       <r>    1.2794    1.0000 </r>
       <r>    1.2885    1.0000 </r>
       <r>    1.2912    1.0000 </r>
       <r>    1.3150    1.0000 </r>
       <r>    1.3193    1.0000 </r>
       <r>    1.3312    1.0000 </r>
       <r>    1.7725    1.0000 </r>
       <r>    1.7776    1.0000 </r>
       <r>    1.7912    1.0000 </r>
       <r>    1.7986    1.0000 </r>
       <r>    1.8204    1.0000 </r>
       <r>    1.8356    1.0000 </r>
       <r>    1.8431    1.0000 </r>
       <r>    1.8583    1.0000 </r>
       <r>    1.8618    1.0000 </r>
       <r>    1.8771    1.0000 </r>
       <r>    1.8858    1.0000 </r>
       <r>    1.8936    1.0000 </r>
       <r>    1.9022    1.0000 </r>
       <r>    1.9068    1.0000 </r>
       <r>    1.9144    1.0000 </r>
       <r>    1.9252    1.0000 </r>
       <r>    2.0019    1.0000 </r>
       <r>    2.0231    1.0000 </r>
       <r>    2.0906    1.0000 </r>
       <r>    2.1138    1.0000 </r>
       <r>    2.2634    1.0000 </r>
       <r>    2.2689    1.0000 </r>
       <r>    2.2892    1.0000 </r>
       <r>    2.2915    1.0000 </r>
       <r>    2.3007    1.0000 </r>
       <r>    2.3088    1.0000 </r>
       <r>    2.4445    1.0000 </r>
       <r>    2.4571    1.0000 </r>
       <r>    2.4590    1.0000 </r>
       <r>    2.4596    1.0000 </r>
       <r>    2.4671    1.0000 </r>
       <r>    2.4723    1.0000 </r>
       <r>    2.4791    1.0000 </r>
       <r>    2.4850    1.0000 </r>
       <r>    2.4937    1.0000 </r>
       <r>    2.4982    1.0000 </r>
       <r>    2.5012    1.0000 </r>
       <r>    2.5089    1.0000 </r>
       <r>    2.6251    1.0000 </r>
       <r>    2.6303    1.0000 </r>
       <r>    2.6744    1.0000 </r>
       <r>    2.6760    1.0000 </r>
       <r>    2.6812    1.0000 </r>
       <r>    2.6918    1.0000 </r>
       <r>    2.7162    1.0000 </r>
       <r>    2.7213    1.0000 </r>
       <r>    2.7227    1.0000 </r>
       <r>    2.7306    1.0000 </r>
       <r>    2.7351    1.0000 </r>
       <r>    2.7392    1.0000 </r>
       <r>    2.8046    1.0000 </r>
       <r>    2.8105    1.0000 </r>
       <r>    2.8182    1.0000 </r>
       <r>    2.8233    1.0000 </r>
       <r>    2.8317    1.0000 </r>
       <r>    2.8331    1.0000 </r>
       <r>    3.0995    1.0000 </r>
       <r>    3.1088    1.0000 </r>
       <r>    3.1131    1.0000 </r>
       <r>    3.1165    1.0000 </r>
       <r>    3.1246    1.0000 </r>
       <r>    3.1303    1.0000 </r>
       <r>    3.1951    1.0000 </r>
       <r>    3.1968    1.0000 </r>
       <r>    3.2354    1.0000 </r>
       <r>    3.2388    1.0000 </r>
       <r>    7.1094    0.0000 </r>
       <r>    7.1450    0.0000 </r>
       <r>    7.1675    0.0000 </r>
       <r>    7.1779    0.0000 </r>
       <r>    7.2046    0.0000 </r>
       <r>    7.2171    0.0000 </r>
       <r>    7.2309    0.0000 </r>
       <r>    7.2384    0.0000 </r>
       <r>    7.2862    0.0000 </r>
       <r>    7.3087    0.0000 </r>
       <r>    7.3240    0.0000 </r>
       <r>    7.3673    0.0000 </r>
       <r>    7.3950    0.0000 </r>
       <r>    7.4014    0.0000 </r>
       <r>    7.4666    0.0000 </r>
       <r>    7.4842    0.0000 </r>
       <r>    7.5043    0.0000 </r>
       <r>    7.6018    0.0000 </r>
       <r>    7.8801    0.0000 </r>
       <r>    7.8940    0.0000 </r>
       <r>    7.8953    0.0000 </r>
       <r>    7.9568    0.0000 </r>
       <r>    8.0242    0.0000 </r>
       <r>    8.0606    0.0000 </r>
       <r>    8.2271    0.0000 </r>
       <r>    8.2710    0.0000 </r>
       <r>    8.2947    0.0000 </r>
       <r>    8.3168    0.0000 </r>
       <r>    8.3725    0.0000 </r>
       <r>    8.4219    0.0000 </r>
       <r>    8.4903    0.0000 </r>
       <r>    8.5495    0.0000 </r>
       <r>    8.5831    0.0000 </r>
       <r>    8.6706    0.0000 </r>
       <r>    8.6891    0.0000 </r>
       <r>    8.7194    0.0000 </r>
       <r>    8.7986    0.0000 </r>
       <r>    8.8242    0.0000 </r>
       <r>    8.8662    0.0000 </r>
       <r>    8.8987    0.0000 </r>
       <r>    8.9353    0.0000 </r>
       <r>    8.9445    0.0000 </r>
       <r>    8.9899    0.0000 </r>
       <r>    9.0135    0.0000 </r>
       <r>    9.0269    0.0000 </r>
       <r>    9.0611    0.0000 </r>
       <r>    9.1057    0.0000 </r>
       <r>    9.1895    0.0000 </r>
       <r>   11.3606    0.0000 </r>
       <r>   11.4119    0.0000 </r>
       <r>   11.4501    0.0000 </r>
       <r>   11.5134    0.0000 </r>
       <r>   11.5458    0.0000 </r>
       <r>   11.5784    0.0000 </r>
       <r>   11.6040    0.0000 </r>
       <r>   11.7166    0.0000 </r>
      </set>
     </set>
    </set>
   </array>
  </eigenvalues>
  <separator name="orbital magnetization" >
   <v name="MAGDIPOLOUT">      0.00000000      0.00000000      0.00000000</v>
  </separator>
 </calculation>
 <structure name="finalpos" >
  <crystal>
   <varray name="basis" >
    <v>       5.03837329      -2.90749283       9.06505143 </v>
    <v>       0.00240168       5.81612375       9.06408040 </v>
    <v>      -5.03577449      -2.90876562       9.06319088 </v>
   </varray>
   <i name="volume">    796.63906048 </i>
   <varray name="rec_basis" >
    <v>       0.09926443      -0.05732387       0.03675655 </v>
    <v>      -0.00002127       0.11462317       0.03677566 </v>
    <v>      -0.09926354      -0.05729878       0.03679306 </v>
   </varray>
  </crystal>
  <varray name="positions" >
   <v>       0.13989724       0.14055113       0.14096173 </v>
   <v>       0.39199121       0.39100063       0.39187147 </v>
   <v>       0.14115418       0.14146427       0.64189461 </v>
   <v>       0.39218670       0.39151326       0.89150138 </v>
   <v>       0.14100616       0.64044047       0.14099989 </v>
   <v>       0.39109718       0.89111787       0.39110921 </v>
   <v>       0.14123613       0.63985364       0.64056267 </v>
   <v>       0.39152968       0.89206984       0.89113128 </v>
   <v>       0.64086092       0.14154970       0.13981752 </v>
   <v>       0.89147454       0.39272318       0.39177436 </v>
   <v>       0.64124344       0.14079261       0.64034264 </v>
   <v>       0.89188387       0.39247152       0.89073893 </v>
   <v>       0.64101812       0.64156533       0.14109755 </v>
   <v>       0.89064791       0.89107360       0.39227256 </v>
   <v>       0.64183306       0.64104775       0.64212746 </v>
   <v>       0.89169664       0.89139264       0.89219320 </v>
   <v>       0.99950502       0.00132355       0.99667182 </v>
   <v>       0.99919528      -0.00014767       0.49768867 </v>
   <v>       0.25138893       0.24887698       0.74952830 </v>
   <v>       0.99734583       0.49794404       0.00060427 </v>
   <v>       0.00022661       0.49714783       0.50078140 </v>
   <v>       0.49985931       0.99719235       0.00064947 </v>
   <v>       0.49950366       0.49995367       0.99770026 </v>
   <v>       0.75098940       0.74917956       0.24965105 </v>
   <v>       0.49972094       0.50110334       0.49654371 </v>
   <v>       0.74934753       0.75064957       0.74798715 </v>
   <v>       0.05129454       0.18682787       0.35882974 </v>
   <v>       0.35848280       0.05176613       0.18660399 </v>
   <v>       0.18608479       0.35896071       0.05149314 </v>
   <v>       0.43700846       0.30149672       0.10836491 </v>
   <v>       0.10752117       0.43742995       0.30163643 </v>
   <v>       0.30126052       0.10861968       0.43698710 </v>
   <v>       0.05121560       0.18700746       0.85862066 </v>
   <v>       0.35762856       0.05216317       0.68738278 </v>
   <v>       0.18678929       0.35894943       0.55145286 </v>
   <v>       0.43697392       0.30118476       0.60894718 </v>
   <v>       0.10875254       0.43608783       0.80129989 </v>
   <v>       0.30105448       0.10891029       0.93707660 </v>
   <v>       0.05132669       0.68614043       0.35908937 </v>
   <v>       0.35904824       0.55123356       0.18633015 </v>
   <v>       0.18597254       0.85888952       0.05152882 </v>
   <v>       0.43642238       0.80217334       0.10815046 </v>
   <v>       0.10844356       0.93656686       0.30199479 </v>
   <v>       0.30205754       0.60798385       0.43671594 </v>
   <v>       0.05158280       0.68540595       0.85893173 </v>
   <v>       0.35916832       0.55122322       0.68597337 </v>
   <v>       0.18605534       0.85883185       0.55148104 </v>
   <v>       0.43665054       0.80141576       0.60838857 </v>
   <v>       0.10825989       0.93639434       0.80186080 </v>
   <v>       0.30154312       0.60804957       0.93702462 </v>
   <v>       0.55182932       0.18641655       0.35863451 </v>
   <v>       0.85938197       0.05097786       0.18614337 </v>
   <v>       0.68659042       0.35891968       0.05115901 </v>
   <v>       0.93637599       0.30192324       0.10816093 </v>
   <v>       0.60861876       0.43687988       0.30166484 </v>
   <v>       0.80212525       0.10800352       0.43681000 </v>
   <v>       0.55153689       0.18560410       0.85907103 </v>
   <v>       0.85901036       0.05105302       0.68623293 </v>
   <v>       0.68615237       0.35880005       0.55149935 </v>
   <v>       0.93666577       0.30182172       0.60823156 </v>
   <v>       0.60834478       0.43658439       0.80174513 </v>
   <v>       0.80194814       0.10773143       0.93678498 </v>
   <v>       0.55149852       0.68707563       0.35827387 </v>
   <v>       0.85829159       0.55205678       0.18595711 </v>
   <v>       0.68648815       0.85865465       0.05151695 </v>
   <v>       0.93672888       0.80091308       0.10883100 </v>
   <v>       0.60882203       0.93687756       0.30099052 </v>
   <v>       0.80081482       0.60899544       0.43655462 </v>
   <v>       0.55116570       0.68641477       0.85910070 </v>
   <v>       0.85853859       0.55168159       0.68600648 </v>
   <v>       0.68641089       0.85825577       0.55206994 </v>
   <v>       0.93673748       0.80106190       0.60905292 </v>
   <v>       0.60847578       0.93655147       0.80156992 </v>
   <v>       0.80135780       0.60910333       0.93560819 </v>
   <v>       0.24847582       0.24988189       0.24756244 </v>
   <v>       0.24800768       0.74798328       0.24839568 </v>
   <v>       0.24744352       0.74739726       0.74928866 </v>
   <v>       0.74732303       0.24772441       0.24904725 </v>
   <v>       0.49683414       0.99757043       0.50004016 </v>
   <v>       0.74822359       0.24821041       0.74828282 </v>
  </varray>
 </structure>
</modeling>
