Li(NbTa)O_3                             
           1
     5.046548   -2.912062    9.035625
     0.002423    5.825680    9.034779
    -5.043993   -2.913385    9.033779
   Li   Nb   O    Ta
  16  10  48   6
Li(NbTa)O_3                             
           1
     5.046548   -2.912062    9.035625
     0.002423    5.825680    9.034779
    -5.043993   -2.913385    9.033779
   Li   Nb   O    Ta
  16  10  48   6
Direct configuration=     1
   0.13834752  0.13936271  0.13984335
   0.39146324  0.38999630  0.39085144
   0.14028321  0.14032414  0.64092124
   0.39173469  0.39088444  0.89059988
   0.14005761  0.63914415  0.13990376
   0.38998511  0.89022976  0.39046082
   0.14027342  0.63856692  0.63942290
   0.39066873  0.89122478  0.89017412
   0.63968950  0.14081636  0.13851063
   0.89081879  0.39199278  0.39127564
   0.64044608  0.13979598  0.63895884
   0.89104424  0.39188824  0.88993991
   0.63987068  0.64050964  0.14005521
   0.88952244  0.89019616  0.39154151
   0.64095434  0.64008558  0.64144699
   0.89103108  0.89076076  0.89134632
   0.99959237  0.00150112  0.99675172
   0.99938324  0.00003493  0.49763958
   0.25168038  0.24891337  0.74959517
   0.99749990  0.49794372  0.00086033
   0.00052440  0.49715140  0.50088067
   0.49988249  0.99738472  0.00090131
   0.49954620  0.50003968  0.99785757
   0.75097315  0.74942469  0.24984287
   0.49985523  0.50129758  0.49655071
   0.74940214  0.75095878  0.74802348
   0.05623360  0.18120304  0.36059596
   0.36055215  0.05618073  0.18135900
   0.18067803  0.36043515  0.05635112
   0.43164615  0.30579781  0.11007695
   0.10933811  0.43208088  0.30572184
   0.30616879  0.11038237  0.43144631
   0.05540035  0.18155956  0.86034038
   0.35943918  0.05639020  0.68203455
   0.18159346  0.36067916  0.55556672
   0.43176800  0.30520898  0.61104129
   0.11066152  0.43074915  0.80539644
   0.30515946  0.11079423  0.93190663
   0.05604537  0.68076856  0.36081137
   0.36061507  0.55618152  0.18081868
   0.18040413  0.86090372  0.05629587
   0.43096027  0.80670950  0.10983535
   0.11018018  0.93120277  0.30647725
   0.30631393  0.60963452  0.43142758
   0.05642617  0.67983109  0.86072292
   0.36082901  0.55621291  0.68039936
   0.18050111  0.86073339  0.55625759
   0.43105925  0.80638098  0.60992686
   0.10974163  0.93076687  0.80662904
   0.30592914  0.60973059  0.93157562
   0.55668960  0.18089021  0.36049958
   0.86099568  0.05588109  0.18065345
   0.68094161  0.36072792  0.05606070
   0.93094987  0.30643726  0.10970186
   0.61015919  0.43137998  0.30635721
   0.80662739  0.10979363  0.43135599
   0.55625493  0.18016866  0.86082204
   0.86060460  0.05601788  0.68054061
   0.68056339  0.36084158  0.55626059
   0.93128773  0.30623948  0.60979445
   0.61008613  0.43101265  0.80636497
   0.80623116  0.10929440  0.93147945
   0.55554077  0.68183433  0.36007734
   0.86007458  0.55634829  0.18046819
   0.68107200  0.86046774  0.05575260
   0.93136114  0.80492582  0.11095065
   0.61067752  0.93165297  0.30547765
   0.80503784  0.61074302  0.43111591
   0.55556968  0.68082022  0.86090541
   0.86059508  0.55581627  0.68050717
   0.68097931  0.85972506  0.55655493
   0.93138973  0.80539064  0.61084254
   0.61024363  0.93134011  0.80571432
   0.80584636  0.61083297  0.93009391
   0.24862253  0.24992729  0.24762435
   0.24806756  0.74806531  0.24849505
   0.24752603  0.74745881  0.74934160
   0.74730972  0.24776208  0.24918815
   0.49682629  0.99767190  0.50015434
   0.74834988  0.24827406  0.74832874
Li(NbTa)O_3                             
           1
     5.048594   -2.913173    9.028455
     0.002492    5.827996    9.027603
    -5.045991   -2.914547    9.026567
   Li   Nb   O    Ta
  16  10  48   6
Direct configuration=     2
   0.13836000  0.13937118  0.13984941
   0.39145912  0.39000344  0.39085489
   0.14028393  0.14033059  0.64092723
   0.39172723  0.39088415  0.89060234
   0.14006269  0.63915581  0.13990928
   0.38999172  0.89023139  0.39045997
   0.14027527  0.63857896  0.63943071
   0.39067172  0.89122560  0.89017954
   0.63970037  0.14081583  0.13852003
   0.89081848  0.39199243  0.39127062
   0.64045016  0.13979924  0.63897201
   0.89104560  0.39188476  0.88994358
   0.63987872  0.64051475  0.14005932
   0.88952989  0.89019690  0.39154119
   0.64095627  0.64009026  0.64144730
   0.89102977  0.89075773  0.89134740
   0.99937855  0.00118052  0.99666938
   0.99918660 -0.00019469  0.49750532
   0.25138740  0.24871974  0.74939055
   0.99738216  0.49778285  0.00056131
   0.00027170  0.49705642  0.50058016
   0.49962194  0.99727704  0.00064738
   0.49933470  0.49977903  0.99774404
   0.75066461  0.74925220  0.24960441
   0.49964070  0.50100707  0.49647070
   0.74918324  0.75069621  0.74786060
   0.05583284  0.18229565  0.36003233
   0.35998204  0.05578832  0.18242288
   0.18172154  0.35991803  0.05589251
   0.43290260  0.30556480  0.10935533
   0.10860207  0.43331873  0.30549639
   0.30573902  0.10982080  0.43255556
   0.05519989  0.18280081  0.85959892
   0.35872666  0.05615574  0.68325237
   0.18281398  0.35995801  0.55534285
   0.43297084  0.30500089  0.61031621
   0.10997543  0.43190179  0.80514178
   0.30491059  0.11009300  0.93309855
   0.05557909  0.68179376  0.36029873
   0.36009995  0.55572029  0.18185759
   0.18142763  0.86036867  0.05587245
   0.43212612  0.80642810  0.10917298
   0.10952259  0.93237728  0.30619572
   0.30604437  0.60895496  0.43261722
   0.05596967  0.68082951  0.86022038
   0.36031988  0.55574637  0.68143447
   0.18154686  0.86019067  0.55584385
   0.43214953  0.80592371  0.60938622
   0.10907281  0.93196407  0.80635052
   0.30568164  0.60903356  0.93279241
   0.55623794  0.18195695  0.35996835
   0.86047557  0.05542358  0.18170646
   0.68198978  0.36019636  0.05562639
   0.93208984  0.30612824  0.10906802
   0.60951010  0.43255821  0.30606465
   0.80635473  0.10912606  0.43253660
   0.55581930  0.18120823  0.86028624
   0.86007080  0.05557774  0.68159806
   0.68158685  0.36030560  0.55584129
   0.93247734  0.30597037  0.60911746
   0.60940728  0.43221444  0.80609250
   0.80595652  0.10861375  0.93267241
   0.55532613  0.68304756  0.35935684
   0.85937510  0.55612665  0.18164072
   0.68228591  0.85974646  0.05552975
   0.93259086  0.80472630  0.11020351
   0.61009920  0.93274360  0.30506587
   0.80482409  0.60999715  0.43235733
   0.55534003  0.68202004  0.86020253
   0.85988221  0.55559897  0.68167720
   0.68217469  0.85905334  0.55626991
   0.93257101  0.80512756  0.61016523
   0.60955706  0.93249459  0.80546685
   0.80556136  0.61019471  0.93120384
   0.24844124  0.24969884  0.24750958
   0.24791534  0.74791161  0.24832829
   0.24740930  0.74731607  0.74912295
   0.74720511  0.24761716  0.24899184
   0.49672201  0.99755799  0.49991744
   0.74818831  0.24809291  0.74816938
Li(NbTa)O_3                             
           1
     5.050558   -2.914541    9.020570
     0.002201    5.830465    9.019796
    -5.048353   -2.915810    9.018942
   Li   Nb   O    Ta
  16  10  48   6
Direct configuration=     3
   0.13840255  0.13940137  0.13986082
   0.39143448  0.39003087  0.39088474
   0.14027682  0.14036735  0.64096481
   0.39170558  0.39088486  0.89061387
   0.14006356  0.63919642  0.13992230
   0.39001979  0.89022398  0.39044979
   0.14026858  0.63861227  0.63945976
   0.39069027  0.89122792  0.89019596
   0.63973982  0.14080935  0.13854027
   0.89081167  0.39201479  0.39124670
   0.64045293  0.13980364  0.63902105
   0.89105850  0.39188087  0.88993743
   0.63992001  0.64054145  0.14006925
   0.88955758  0.89019397  0.39154973
   0.64097991  0.64009693  0.64145176
   0.89102038  0.89073951  0.89136820
   0.99919792  0.00098479  0.99648517
   0.99896676 -0.00047062  0.49742563
   0.25109120  0.24860838  0.74922311
   0.99713675  0.49770689  0.00033214
  -0.00000319  0.49692363  0.50045492
   0.49950763  0.99706426  0.00036708
   0.49918143  0.49966944  0.99750081
   0.75053551  0.74895209  0.24935559
   0.49946140  0.50082210  0.49630449
   0.74901540  0.75042533  0.74776934
   0.05489408  0.18405650  0.35931783
   0.35924243  0.05488753  0.18414029
   0.18345697  0.35924638  0.05487938
   0.43467983  0.30478941  0.10858036
   0.10780359  0.43507287  0.30475344
   0.30470620  0.10915703  0.43429069
   0.05453241  0.18457088  0.85876353
   0.35794484  0.05536730  0.68500142
   0.18457865  0.35914356  0.55461946
   0.43470680  0.30432736  0.60947307
   0.10914970  0.43363044  0.80443394
   0.30418468  0.10927965  0.93484075
   0.05458402  0.68350387  0.35961290
   0.35941255  0.55471710  0.18360059
   0.18314277  0.85963722  0.05494082
   0.43383147  0.80557883  0.10844252
   0.10879492  0.93409143  0.30534436
   0.30522480  0.60820647  0.43434147
   0.05499247  0.68252634  0.85952583
   0.35963683  0.55473052  0.68318313
   0.18329088  0.85946520  0.55491310
   0.43388105  0.80486453  0.60873253
   0.10834443  0.93372488  0.80548266
   0.30489290  0.60826165  0.93454757
   0.55518913  0.18367006  0.35932230
   0.85977797  0.05443207  0.18346246
   0.68372428  0.35947916  0.05467442
   0.93380182  0.30524702  0.10835459
   0.60879956  0.43427756  0.30518632
   0.80551768  0.10837800  0.43426190
   0.55485848  0.18294162  0.85957789
   0.85936368  0.05460897  0.68336085
   0.68330144  0.35957653  0.55490795
   0.93420808  0.30513305  0.60837480
   0.60865999  0.43395694  0.80525061
   0.80512409  0.10787331  0.93440430
   0.55463518  0.68481482  0.35853216
   0.85855557  0.55541164  0.18338953
   0.68404744  0.85893330  0.05482034
   0.93434464  0.80408959  0.10934335
   0.60934991  0.93448736  0.30415099
   0.80414257  0.60915497  0.43413104
   0.55463093  0.68380621  0.85937718
   0.85902879  0.55492253  0.68342279
   0.68393743  0.85831918  0.55541617
   0.93431457  0.80437862  0.60936898
   0.60874415  0.93421164  0.80473787
   0.80477957  0.60941051  0.93292048
   0.24827275  0.24966669  0.24733526
   0.24783079  0.74780733  0.24824152
   0.24726358  0.74719028  0.74907424
   0.74722834  0.24756650  0.24881158
   0.49671734  0.99741004  0.49984336
   0.74810291  0.24798373  0.74808277
Li(NbTa)O_3                             
           1
     5.050481   -2.914581    9.020543
     0.002088    5.830455    9.019802
    -5.048410   -2.915797    9.019006
   Li   Nb   O    Ta
  16  10  48   6
Direct configuration=     4
   0.13845924  0.13942949  0.13987672
   0.39141741  0.39005326  0.39091155
   0.14028781  0.14040101  0.64098791
   0.39169170  0.39087988  0.89062672
   0.14006518  0.63924011  0.13994708
   0.39004805  0.89023607  0.39044272
   0.14027360  0.63864468  0.63949222
   0.39070050  0.89123788  0.89021975
   0.63977126  0.14080101  0.13857872
   0.89081282  0.39202960  0.39123439
   0.64045540  0.13982054  0.63907334
   0.89107299  0.39187567  0.88993650
   0.63995542  0.64057356  0.14008531
   0.88958871  0.89019516  0.39154907
   0.64100330  0.64011126  0.64144777
   0.89101280  0.89073052  0.89138857
   0.99921951  0.00102456  0.99651117
   0.99899552 -0.00046817  0.49748147
   0.25111262  0.24865893  0.74926009
   0.99714564  0.49775406  0.00034068
   0.00000761  0.49694872  0.50050331
   0.49955417  0.99708446  0.00038276
   0.49921007  0.49971836  0.99750950
   0.75060096  0.74895992  0.24937312
   0.49948415  0.50087032  0.49633062
   0.74905163  0.75043649  0.74779892
   0.05420726  0.18480685  0.35917849
   0.35909317  0.05424862  0.18484532
   0.18419595  0.35913410  0.05417235
   0.43539764  0.30420782  0.10842752
   0.10764044  0.43580123  0.30418297
   0.30400469  0.10902806  0.43504930
   0.05397770  0.18527931  0.85860173
   0.35779813  0.05473830  0.68574066
   0.18526060  0.35900197  0.55404672
   0.43536000  0.30378061  0.60931107
   0.10895269  0.43434424  0.80390128
   0.30361113  0.10913646  0.93550019
   0.05392458  0.68425657  0.35946370
   0.35926264  0.55404523  0.18436866
   0.18391205  0.85945550  0.05429705
   0.43456373  0.80491010  0.10830746
   0.10865854  0.93481092  0.30468599
   0.30460318  0.60806556  0.43506065
   0.05431583  0.68331432  0.85935380
   0.35947687  0.55405338  0.68396586
   0.18406401  0.85927782  0.55428545
   0.43465018  0.80413894  0.60862072
   0.10821373  0.93447649  0.80481429
   0.30427701  0.60811141  0.93528512
   0.55449805  0.18444906  0.35917932
   0.85962050  0.05377491  0.18423491
   0.68450319  0.35930760  0.05401979
   0.93456330  0.30460202  0.10820310
   0.60867119  0.43502288  0.30450539
   0.80485871  0.10823832  0.43498314
   0.55422485  0.18371621  0.85940295
   0.85918709  0.05395473  0.68416710
   0.68407618  0.35939377  0.55426608
   0.93494153  0.30449004  0.60824502
   0.60852193  0.43469714  0.80459440
   0.80449968  0.10774543  0.93511929
   0.55407841  0.68550848  0.35837179
   0.85838796  0.55481729  0.18411717
   0.68476502  0.85876856  0.05424495
   0.93502250  0.80356510  0.10916561
   0.60921071  0.93517709  0.30352969
   0.80359788  0.60899117  0.43482625
   0.55407180  0.68456945  0.85918158
   0.85882498  0.55438625  0.68416185
   0.68471119  0.85816410  0.55479630
   0.93499678  0.80378003  0.60922453
   0.60859267  0.93488549  0.80415316
   0.80418114  0.60922389  0.93366769
   0.24831129  0.24971337  0.24734817
   0.24784700  0.74783029  0.24827890
   0.24729220  0.74720954  0.74911206
   0.74728921  0.24758625  0.24882252
   0.49676974  0.99744775  0.49985120
   0.74811872  0.24800059  0.74812422
Li(NbTa)O_3                             
           1
     5.047345   -2.912866    9.031287
     0.001950    5.826890    9.030578
    -5.045554   -2.914085    9.029904
   Li   Nb   O    Ta
  16  10  48   6
Direct configuration=     5
   0.13868960  0.13955321  0.13995144
   0.39137550  0.39015680  0.39101730
   0.14035296  0.14053598  0.64108413
   0.39165855  0.39087796  0.89068608
   0.14008890  0.63942450  0.14006180
   0.39017027  0.89030220  0.39044112
   0.14031266  0.63877866  0.63963456
   0.39075229  0.89128855  0.89032852
   0.63990232  0.14078937  0.13874472
   0.89083466  0.39209165  0.39121311
   0.64047843  0.13990664  0.63928143
   0.89113863  0.39187374  0.88995646
   0.64010016  0.64070434  0.14015867
   0.88972040  0.89022098  0.39155614
   0.64110468  0.64018883  0.64143977
   0.89100690  0.89072099  0.89147144
   0.99950280  0.00138835  0.99673819
   0.99925335 -0.00021644  0.49781568
   0.25140299  0.24898454  0.74955917
   0.99734254  0.49806028  0.00058678
   0.00025467  0.49717685  0.50088157
   0.49991638  0.99728648  0.00063330
   0.49952609  0.50008812  0.99770689
   0.75102830  0.74917567  0.24967144
   0.49976552  0.50121353  0.49655994
   0.74934290  0.75067148  0.74806922
   0.05218074  0.18642376  0.35918542
   0.35905819  0.05241069  0.18632977
   0.18582885  0.35919179  0.05215467
   0.43678985  0.30238353  0.10852815
   0.10775704  0.43721397  0.30236665
   0.30200428  0.10905145  0.43667803
   0.05218064  0.18665472  0.85871217
   0.35795107  0.05278060  0.68718192
   0.18654252  0.35914960  0.55226270
   0.43660525  0.30208617  0.60934870
   0.10891582  0.43578016  0.80221295
   0.30185975  0.10921698  0.93677451
   0.05200742  0.68588076  0.35946659
   0.35926200  0.55207257  0.18603212
   0.18559165  0.85936335  0.05236804
   0.43614349  0.80288916  0.10837924
   0.10871109  0.93633577  0.30272605
   0.30271911  0.60815820  0.43654654
   0.05232121  0.68512194  0.85925109
   0.35943668  0.55205443  0.68568970
   0.18573475  0.85916976  0.55239640
   0.43637426  0.80207690  0.60867904
   0.10832130  0.93605334  0.80277394
   0.30236474  0.60817872  0.93682376
   0.55249229  0.18618067  0.35915448
   0.85959851  0.05183705  0.18589424
   0.68620769  0.35924779  0.05206047
   0.93619293  0.30263344  0.10825229
   0.60877202  0.43660071  0.30245298
   0.80288027  0.10827880  0.43651269
   0.55232661  0.18538397  0.85936448
   0.85915070  0.05197441  0.68592868
   0.68577326  0.35929968  0.55233521
   0.93647889  0.30253139  0.60837962
   0.60860518  0.43626574  0.80259774
   0.80261304  0.10786962  0.93661186
   0.55230087  0.68684645  0.35846585
   0.85842130  0.55291873  0.18563635
   0.68617139  0.85885329  0.05240672
   0.93633234  0.80188434  0.10918076
   0.60923731  0.93656977  0.30174855
   0.80185653  0.60908604  0.43615035
   0.55224646  0.68610412  0.85919168
   0.85880532  0.55264375  0.68564712
   0.68628812  0.85828240  0.55285669
   0.93638779  0.80195685  0.60927058
   0.60864427  0.93625471  0.80236200
   0.80231044  0.60918074  0.93527327
   0.24854135  0.25000854  0.24752581
   0.24801510  0.74799922  0.24850122
   0.24750655  0.74740065  0.74936911
   0.74751006  0.24779098  0.24900068
   0.49700531  0.99764252  0.50006766
   0.74829914  0.24822008  0.74833826
Li(NbTa)O_3                             
           1
     5.046017   -2.911984    9.036538
     0.002124    5.825214    9.035760
    -5.044008   -2.913276    9.035007
   Li   Nb   O    Ta
  16  10  48   6
Direct configuration=     6
   0.13876727  0.13960049  0.13999181
   0.39138394  0.39020154  0.39105807
   0.14039093  0.14058011  0.64112320
   0.39166616  0.39089441  0.89072095
   0.14011601  0.63948660  0.14010856
   0.39021865  0.89033747  0.39045896
   0.14034351  0.63883204  0.63968573
   0.39078299  0.89131827  0.89037195
   0.63994949  0.14080590  0.13880698
   0.89086057  0.39211658  0.39122277
   0.64050056  0.13994564  0.63934682
   0.89117152  0.39188525  0.88998457
   0.64015034  0.64074981  0.14019776
   0.88976935  0.89025292  0.39157468
   0.64114410  0.64022908  0.64144978
   0.89102446  0.89074086  0.89150564
   0.99954926  0.00145123  0.99677882
   0.99929332 -0.00013666  0.49784330
   0.25146359  0.24901184  0.74961079
   0.99740176  0.49809535  0.00065591
   0.00031117  0.49721302  0.50092633
   0.49996260  0.99731482  0.00070231
   0.49958208  0.50012161  0.99776357
   0.75107959  0.74923188  0.24972552
   0.49980947  0.50126628  0.49659978
   0.74939720  0.75073754  0.74810604
   0.05183946  0.18665345  0.35920126
   0.35905470  0.05211867  0.18653324
   0.18605817  0.35921964  0.05183570
   0.43697462  0.30208065  0.10856467
   0.10779834  0.43740359  0.30206629
   0.30170113  0.10905754  0.43689460
   0.05185352  0.18685712  0.85875587
   0.35799311  0.05247219  0.68737723
   0.18672725  0.35919171  0.55195994
   0.43679534  0.30179505  0.60935555
   0.10893538  0.43598070  0.80190315
   0.30156912  0.10923779  0.93695509
   0.05168932  0.68610239  0.35948407
   0.35929031  0.55173444  0.18625472
   0.18582402  0.85936164  0.05203592
   0.43636103  0.80257016  0.10840667
   0.10873110  0.93654273  0.30242231
   0.30241412  0.60819607  0.43675108
   0.05198067  0.68538068  0.85925480
   0.35945303  0.55171508  0.68592583
   0.18596050  0.85917400  0.55206465
   0.43662740  0.80175539  0.60869494
   0.10836044  0.93627393  0.80244627
   0.30204539  0.60821969  0.93703458
   0.55217590  0.18642000  0.35915298
   0.85962607  0.05150207  0.18611096
   0.68644876  0.35926456  0.05170905
   0.93642113  0.30231504  0.10828111
   0.60880376  0.43682512  0.30212872
   0.80256824  0.10829381  0.43673537
   0.55200135  0.18560132  0.85938338
   0.85918052  0.05161839  0.68616756
   0.68601441  0.35930030  0.55199929
   0.93668970  0.30221765  0.60842488
   0.60863057  0.43649972  0.80227158
   0.80231181  0.10791974  0.93681177
   0.55199079  0.68703346  0.35850673
   0.85845624  0.55258851  0.18585298
   0.68638105  0.85888760  0.05207806
   0.93653694  0.80158191  0.10918969
   0.60924205  0.93676861  0.30146348
   0.80154136  0.60911597  0.43635740
   0.55189562  0.68631715  0.85923596
   0.85883176  0.55231654  0.68586034
   0.68648800  0.85834362  0.55252656
   0.93660315  0.80164212  0.60929070
   0.60866717  0.93646073  0.80206154
   0.80197662  0.60920320  0.93549843
   0.24857796  0.25002763  0.24756870
   0.24805409  0.74804063  0.24853452
   0.24755570  0.74744243  0.74940057
   0.74751155  0.24782813  0.24906435
   0.49701467  0.99767173  0.50010978
   0.74833091  0.24826215  0.74837894
Li(NbTa)O_3                             
           1
     5.043956   -2.910674    9.044515
     0.002321    5.822666    9.043650
    -5.041678   -2.912039    9.042810
   Li   Nb   O    Ta
  16  10  48   6
Direct configuration=     7
   0.13888499  0.13967933  0.14006217
   0.39140859  0.39027783  0.39112717
   0.14045617  0.14065100  0.64119096
   0.39169079  0.39093222  0.89078353
   0.14017114  0.63958459  0.14018628
   0.39029737  0.89039813  0.39050024
   0.14040065  0.63892049  0.63977010
   0.39084016  0.89137046  0.89044390
   0.64002601  0.14084606  0.13890713
   0.89090937  0.39216188  0.39125011
   0.64054337  0.14001347  0.63944875
   0.89122998  0.39191566  0.89003994
   0.64023201  0.64082141  0.14026515
   0.88984799  0.89031461  0.39161563
   0.64121073  0.64029901  0.64147842
   0.89106548  0.89078472  0.89156263
   0.99959246  0.00150447  0.99681330
   0.99932230 -0.00005708  0.49786090
   0.25151724  0.24903127  0.74965054
   0.99746555  0.49811907  0.00071736
   0.00036560  0.49724808  0.50095761
   0.50000311  0.99733569  0.00076166
   0.49963442  0.50014121  0.99781704
   0.75112363  0.74928610  0.24977625
   0.49984164  0.50129988  0.49664675
   0.74945472  0.75080034  0.74813176
   0.05150955  0.18687632  0.35919840
   0.35902807  0.05184544  0.18672362
   0.18627419  0.35923688  0.05153849
   0.43712102  0.30177250  0.10861332
   0.10785041  0.43755405  0.30176272
   0.30141757  0.10904594  0.43707951
   0.05150662  0.18705556  0.85880403
   0.35803185  0.05218051  0.68755029
   0.18690413  0.35922569  0.55165970
   0.43698070  0.30149832  0.60935016
   0.10896548  0.43615685  0.80157292
   0.30127909  0.10924390  0.93713360
   0.05138863  0.68630130  0.35949050
   0.35931153  0.55140428  0.18646083
   0.18604090  0.85934750  0.05170814
   0.43655284  0.80226562  0.10843568
   0.10875293  0.93671637  0.30213633
   0.30212439  0.60824433  0.43691674
   0.05164513  0.68561166  0.85925793
   0.35946520  0.55137901  0.68613733
   0.18616177  0.85917802  0.55172666
   0.43685546  0.80145715  0.60870372
   0.10841461  0.93646963  0.80211580
   0.30172071  0.60827830  0.93720793
   0.55188627  0.18662065  0.35913733
   0.85964737  0.05117417  0.18630436
   0.68667725  0.35927124  0.05135673
   0.93660638  0.30200477  0.10833224
   0.60883970  0.43702137  0.30181720
   0.80226748  0.10831119  0.43692856
   0.55167975  0.18578476  0.85940311
   0.85921308  0.05125505  0.68638194
   0.68623837  0.35928990  0.55166277
   0.93686105  0.30191330  0.60848275
   0.60866459  0.43670326  0.80194813
   0.80202343  0.10798177  0.93697541
   0.55167423  0.68721325  0.35854641
   0.85849470  0.55225280  0.18606006
   0.68658052  0.85892147  0.05174005
   0.93672908  0.80125746  0.10919647
   0.60923025  0.93695559  0.30117948
   0.80120471  0.60915202  0.43655052
   0.55151655  0.68650794  0.85929734
   0.85886521  0.55196500  0.68605567
   0.68664317  0.85842636  0.55219631
   0.93680707  0.80132037  0.60931248
   0.60868880  0.93666038  0.80176102
   0.80162460  0.60923790  0.93569849
   0.24860848  0.25004154  0.24760341
   0.24808824  0.74807918  0.24855630
   0.24759844  0.74747750  0.74942827
   0.74749588  0.24785871  0.24913005
   0.49701116  0.99769287  0.50015292
   0.74835111  0.24831119  0.74840899
Li(NbTa)O_3                             
           1
     5.042468   -2.909787    9.050052
     0.002387    5.820896    9.049151
    -5.040088   -2.911169    9.048283
   Li   Nb   O    Ta
  16  10  48   6
Direct configuration=     8
   0.13897722  0.13974632  0.14012582
   0.39143900  0.39034325  0.39118640
   0.14051321  0.14071066  0.64124911
   0.39172109  0.39097108  0.89084037
   0.14022669  0.63966353  0.14025223
   0.39036307  0.89045259  0.39054288
   0.14045529  0.63899656  0.63983966
   0.39089342  0.89141785  0.89050485
   0.64009054  0.14088984  0.13898928
   0.89095524  0.39220337  0.39128167
   0.64058572  0.14007363  0.63953042
   0.89128253  0.39194979  0.89009361
   0.64029993  0.64088018  0.14032549
   0.88991312  0.89037371  0.39165735
   0.64126803  0.64036080  0.64151236
   0.89110852  0.89083041  0.89161139
   0.99960204  0.00151376  0.99681835
   0.99932549 -0.00002417  0.49785163
   0.25153450  0.24902158  0.74965564
   0.99748873  0.49810997  0.00073701
   0.00038443  0.49725475  0.50095065
   0.50000726  0.99733380  0.00078024
   0.49964752  0.50013117  0.99783548
   0.75112275  0.74930506  0.24978879
   0.49984398  0.50129942  0.49666037
   0.74947168  0.75082071  0.74812753
   0.05137509  0.18696737  0.35917477
   0.35898962  0.05174465  0.18679147
   0.18634594  0.35923822  0.05142934
   0.43716173  0.30164496  0.10862926
   0.10786490  0.43759981  0.30164337
   0.30131963  0.10901931  0.43713328
   0.05134935  0.18713662  0.85882204
   0.35803455  0.05207997  0.68760765
   0.18697832  0.35922705  0.55153114
   0.43705699  0.30136669  0.60932945
   0.10897474  0.43621571  0.80142505
   0.30116040  0.10922646  0.93720453
   0.05128265  0.68636255  0.35947435
   0.35930706  0.55127820  0.18653275
   0.18611829  0.85932099  0.05157743
   0.43660872  0.80215696  0.10844372
   0.10875632  0.93676184  0.30203346
   0.30201533  0.60826586  0.43695825
   0.05151507  0.68568855  0.85925163
   0.35945534  0.55124980  0.68620752
   0.18622883  0.85917013  0.55158441
   0.43692392  0.80135008  0.60870075
   0.10844303  0.93652957  0.80198044
   0.30158628  0.60830590  0.93725293
   0.55179254  0.18667057  0.35911036
   0.85964833  0.05104129  0.18636393
   0.68676805  0.35925582  0.05121037
   0.93664640  0.30188923  0.10836177
   0.60884970  0.43708341  0.30170081
   0.80215615  0.10831229  0.43699031
   0.55155052  0.18583837  0.85940255
   0.85922159  0.05110279  0.68645247
   0.68632138  0.35926502  0.55152706
   0.93690616  0.30179725  0.60850835
   0.60867289  0.43676800  0.80181649
   0.80191494  0.10801131  0.93701799
   0.55154125  0.68728033  0.35855648
   0.85851292  0.55210365  0.18613815
   0.68666206  0.85892623  0.05159166
   0.93680862  0.80110763  0.10918543
   0.60920348  0.93702440  0.30106762
   0.80104642  0.60916122  0.43662946
   0.55133853  0.68657518  0.85932635
   0.85887233  0.55180735  0.68612843
   0.68667887  0.85846673  0.55206797
   0.93688537  0.80117990  0.60931504
   0.60869147  0.93673864  0.80163615
   0.80147056  0.60925581  0.93576540
   0.24861455  0.25002553  0.24761755
   0.24809510  0.74808639  0.24855184
   0.24760314  0.74748861  0.74942396
   0.74746996  0.24786505  0.24915172
   0.49699211  0.99769585  0.50016242
   0.74834672  0.24832726  0.74840877
Li(NbTa)O_3                             
           1
     5.040777   -2.908821    9.056182
     0.002404    5.818949    9.055265
    -5.038342   -2.910190    9.054384
   Li   Nb   O    Ta
  16  10  48   6
Direct configuration=     9
   0.13909830  0.13983823  0.14021691
   0.39148783  0.39043309  0.39126858
   0.14059175  0.14079380  0.64132969
   0.39176892  0.39102983  0.89092036
   0.14030963  0.63976901  0.14034212
   0.39045265  0.89052932  0.39060652
   0.14053530  0.63910173  0.63993365
   0.39096944  0.89148557  0.89058881
   0.64018000  0.14095713  0.13909908
   0.89102064  0.39226352  0.39133090
   0.64064947  0.14015795  0.63963926
   0.89135667  0.39200328  0.89017126
   0.64039237  0.64096037  0.14041064
   0.89000191  0.89045910  0.39171978
   0.64134637  0.64044691  0.64156741
   0.89117404  0.89089800  0.89167856
   0.99959781  0.00150430  0.99680782
   0.99931562 -0.00000478  0.49782563
   0.25153827  0.24899442  0.74964711
   0.99749533  0.49808445  0.00073937
   0.00039057  0.49724496  0.50092669
   0.49999687  0.99731664  0.00078323
   0.49964274  0.50010583  0.99783900
   0.75110434  0.74930874  0.24978436
   0.49983140  0.50128273  0.49666181
   0.74947234  0.75082408  0.74810750
   0.05127630  0.18703647  0.35913138
   0.35892649  0.05167953  0.18683594
   0.18638498  0.35922480  0.05135902
   0.43717609  0.30154778  0.10863042
   0.10785916  0.43761919  0.30156315
   0.30126250  0.10896930  0.43716015
   0.05121982  0.18719762  0.85882626
   0.35801302  0.05202139  0.68763935
   0.18703154  0.35921116  0.55142858
   0.43711682  0.30126084  0.60928498
   0.10897088  0.43625013  0.80131008
   0.30107262  0.10918865  0.93725569
   0.05121541  0.68639273  0.35943822
   0.35928809  0.55118485  0.18657958
   0.18616803  0.85927539  0.05148092
   0.43663312  0.80209216  0.10843755
   0.10874429  0.93677754  0.30196887
   0.30194902  0.60827182  0.43696938
   0.05142498  0.68572635  0.85923354
   0.35943152  0.55116045  0.68624253
   0.18626488  0.85914849  0.55147403
   0.43695348  0.80128475  0.60868367
   0.10846249  0.93656166  0.80188114
   0.30148971  0.60832091  0.93726613
   0.55174130  0.18668305  0.35905969
   0.85963473  0.05094552  0.18639166
   0.68683349  0.35921965  0.05110287
   0.93664502  0.30182205  0.10838203
   0.60884610  0.43711437  0.30162606
   0.80208386  0.10830053  0.43701853
   0.55146101  0.18586054  0.85938552
   0.85921310  0.05099176  0.68649463
   0.68637364  0.35921839  0.55143107
   0.93692165  0.30172031  0.60851903
   0.60866463  0.43680156  0.80172171
   0.80184345  0.10802923  0.93702687
   0.55143460  0.68732851  0.35855172
   0.85852394  0.55198596  0.18618856
   0.68672430  0.85891347  0.05147563
   0.93686563  0.80097856  0.10915899
   0.60915421  0.93707282  0.30098707
   0.80091353  0.60915769  0.43668715
   0.55118801  0.68662104  0.85934415
   0.85886375  0.55167650  0.68617610
   0.68668332  0.85849348  0.55198150
   0.93693877  0.80106761  0.60930362
   0.60868584  0.93679104  0.80153902
   0.80134711  0.60926698  0.93580449
   0.24860728  0.24999501  0.24762450
   0.24808990  0.74808542  0.24852691
   0.24759070  0.74748904  0.74940503
   0.74743448  0.24785599  0.24915988
   0.49696162  0.99768583  0.50015967
   0.74833040  0.24832392  0.74839412
Li(NbTa)O_3                             
           1
     5.039621   -2.908157    9.060329
     0.002397    5.817642    9.059422
    -5.037167   -2.909508    9.058526
   Li   Nb   O    Ta
  16  10  48   6
Direct configuration=    10
   0.13920482  0.13992377  0.14030419
   0.39153933  0.39051519  0.39134498