Automatically generated mesh
      36
Reciprocal lattice
    0.00000000000000    0.00000000000000    0.00000000000000             1
    0.25000000000000   -0.00000000000000   -0.00000000000000             2
    0.50000000000000   -0.00000000000000   -0.00000000000000             1
    0.00000000000000    0.25000000000000   -0.00000000000000             2
    0.25000000000000    0.25000000000000   -0.00000000000000             2
    0.50000000000000    0.25000000000000    0.00000000000000             2
   -0.25000000000000    0.25000000000000    0.00000000000000             2
    0.00000000000000    0.50000000000000   -0.00000000000000             1
    0.25000000000000    0.50000000000000    0.00000000000000             2
    0.50000000000000    0.50000000000000   -0.00000000000000             1
    0.00000000000000   -0.00000000000000    0.25000000000000             2
    0.25000000000000   -0.00000000000000    0.25000000000000             2
    0.50000000000000   -0.00000000000000    0.25000000000000             2
   -0.25000000000000    0.00000000000000    0.25000000000000             2
    0.00000000000000    0.25000000000000    0.25000000000000             2
    0.25000000000000    0.25000000000000    0.25000000000000             2
    0.50000000000000    0.25000000000000    0.25000000000000             2
   -0.25000000000000    0.25000000000000    0.25000000000000             2
   -0.00000000000000    0.50000000000000    0.25000000000000             2
    0.25000000000000    0.50000000000000    0.25000000000000             2
    0.50000000000000    0.50000000000000    0.25000000000000             2
   -0.25000000000000    0.50000000000000    0.25000000000000             2
   -0.00000000000000   -0.25000000000000    0.25000000000000             2
    0.25000000000000   -0.25000000000000    0.25000000000000             2
    0.50000000000000   -0.25000000000000    0.25000000000000             2
   -0.25000000000000   -0.25000000000000    0.25000000000000             2
    0.00000000000000   -0.00000000000000    0.50000000000000             1
    0.25000000000000    0.00000000000000    0.50000000000000             2
    0.50000000000000   -0.00000000000000    0.50000000000000             1
    0.00000000000000    0.25000000000000    0.50000000000000             2
    0.25000000000000    0.25000000000000    0.50000000000000             2
    0.50000000000000    0.25000000000000    0.50000000000000             2
   -0.25000000000000    0.25000000000000    0.50000000000000             2
    0.00000000000000    0.50000000000000    0.50000000000000             1
    0.25000000000000    0.50000000000000    0.50000000000000             2
    0.50000000000000    0.50000000000000    0.50000000000000             1
Tetrahedra
       192    0.00260416666667
         2         1         4         5        16
         2         1         2         5        16
         2         1         2        12        16
         2         1         4        15        16
         2         1        11        15        16
         2         1        11        12        16
         2         2         5         6        17
         2         2         3         6        17
         2         2         3        13        17
         2         2         5        16        17
         2         2        12        16        17
         2         2        12        13        17
         2         3         6         7        18
         2         2         3         7        18
         2         2         3        14        18
         2         3         6        17        18
         2         3        13        17        18
         2         3        13        14        18
         2         2         4         7        15
         2         1         2         4        15
         2         1         2        11        15
         2         2         7        15        18
         2         2        14        15        18
         2         2        11        14        15
         2         4         8         9        20
         2         4         5         9        20
         2         4         5        16        20
         2         4         8        19        20
         2         4        15        19        20
         2         4        15        16        20
         2         5         9        10        21
         2         5         6        10        21
         2         5         6        17        21
         2         5         9        20        21
         2         5        16        20        21
         2         5        16        17        21
         2         6         9        10        22
         2         6         7         9        22
         2         6         7        18        22
         2         6        10        21        22
         2         6        17        21        22
         2         6        17        18        22
         2         7         8         9        19
         2         4         7         8        19
         2         4         7        15        19
         2         7         9        19        22
         2         7        18        19        22
         2         7        15        18        19
         2         4         7         8        24
         2         7         8         9        24
         2         8         9        20        24
         2         4         8        23        24
         2         8        19        23        24
         2         8        19        20        24
         2         6         7         9        25
         2         6         9        10        25
         2         9        10        21        25
         2         7         9        24        25
         2         9        20        24        25
         2         9        20        21        25
         2         5         6        10        26
         2         5         9        10        26
         2         9        10        22        26
         2         6        10        25        26
         2        10        21        25        26
         2        10        21        22        26
         2         4         5         9        23
         2         4         8         9        23
         2         8         9        19        23
         2         5         9        23        26
         2         9        22        23        26
         2         9        19        22        23
         2         1         2         4        12
         2         2         4         7        12
         2         4         7        12        24
         2         1         4        11        12
         2         4        11        12        23
         2         4        12        23        24
         2         2         3         7        13
         2         3         6         7        13
         2         6         7        13        25
         2         2         7        12        13
         2         7        12        13        24
         2         7        13        24        25
         2         2         3         6        14
         2         2         5         6        14
         2         5         6        14        26
         2         3         6        13        14
         2         6        13        14        25
         2         6        14        25        26
         2         1         2         5        11
         2         1         4         5        11
         2         4         5        11        23
         2         2         5        11        14
         2         5        11        14        26
         2         5        11        23        26
         2        11        15        16        31
         2        11        12        16        31
         2        11        12        28        31
         2        11        15        30        31
         2        11        27        30        31
         2        11        27        28        31
         2        12        16        17        32
         2        12        13        17        32
         2        12        13        29        32
         2        12        16        31        32
         2        12        28        31        32
         2        12        28        29        32
         2        13        17        18        33
         2        13        14        18        33
         2        13        14        28        33
         2        13        17        32        33
         2        13        29        32        33
         2        13        28        29        33
         2        14        15        18        30
         2        11        14        15        30
         2        11        14        27        30
         2        14        18        30        33
         2        14        28        30        33
         2        14        27        28        30
         2        15        19        20        35
         2        15        16        20        35
         2        15        16        31        35
         2        15        19        34        35
         2        15        30        34        35
         2        15        30        31        35
         2        16        20        21        36
         2        16        17        21        36
         2        16        17        32        36
         2        16        20        35        36
         2        16        31        35        36
         2        16        31        32        36
         2        17        21        22        35
         2        17        18        22        35
         2        17        18        33        35
         2        17        21        35        36
         2        17        32        35        36
         2        17        32        33        35
         2        18        19        22        34
         2        15        18        19        34
         2        15        18        30        34
         2        18        22        34        35
         2        18        33        34        35
         2        18        30        33        34
         2        19        23        24        33
         2        19        20        24        33
         2        19        20        33        35
         2        19        23        30        33
         2        19        30        33        34
         2        19        33        34        35
         2        20        24        25        32
         2        20        21        25        32
         2        20        21        32        36
         2        20        24        32        33
         2        20        32        33        35
         2        20        32        35        36
         2        21        25        26        31
         2        21        22        26        31
         2        21        22        31        35
         2        21        25        31        32
         2        21        31        32        36
         2        21        31        35        36
         2        22        23        26        30
         2        19        22        23        30
         2        19        22        30        34
         2        22        26        30        31
         2        22        30        31        35
         2        22        30        34        35
         2        11        12        23        28
         2        12        23        24        28
         2        23        24        28        33
         2        11        23        27        28
         2        23        27        28        30
         2        23        28        30        33
         2        12        13        24        29
         2        13        24        25        29
         2        24        25        29        32
         2        12        24        28        29
         2        24        28        29        33
         2        24        29        32        33
         2        13        14        25        28
         2        14        25        26        28
         2        25        26        28        31
         2        13        25        28        29
         2        25        28        29        32
         2        25        28        31        32
         2        11        14        26        27
         2        11        23        26        27
         2        23        26        27        30
         2        14        26        27        28
         2        26        27        28        31
         2        26        27        30        31
