       N       E                     dE             d eps       ncg     rms          rms(c)
DAV:   1     0.364446637402E+04    0.36445E+04   -0.24617E+05 20736   0.148E+03
DAV:   2    -0.557687946785E+03   -0.42022E+04   -0.41405E+04 31104   0.458E+02
DAV:   3    -0.798892431344E+03   -0.24120E+03   -0.24036E+03 31104   0.103E+02
DAV:   4    -0.809758866086E+03   -0.10866E+02   -0.10858E+02 36216   0.210E+01
DAV:   5    -0.809968800978E+03   -0.20993E+00   -0.20993E+00 32112   0.206E+00    0.108E+02
RMM:   6    -0.689791591165E+03    0.12018E+03   -0.66820E+02 23515   0.402E+01    0.510E+01
RMM:   7    -0.680477388720E+03    0.93142E+01   -0.32631E+01 24417   0.187E+01    0.223E+01
RMM:   8    -0.680311439072E+03    0.16595E+00   -0.11208E+01 25358   0.539E+00    0.898E+00
RMM:   9    -0.680242909768E+03    0.68529E-01   -0.18827E+00 33020   0.264E+00    0.266E+00
RMM:  10    -0.680246340670E+03   -0.34309E-02   -0.38975E-01 32725   0.112E+00    0.570E-01
RMM:  11    -0.680258352424E+03   -0.12012E-01   -0.12042E-01 34323   0.526E-01    0.327E-01
RMM:  12    -0.680261740212E+03   -0.33878E-02   -0.43275E-02 34241   0.293E-01    0.246E-01
RMM:  13    -0.680262699241E+03   -0.95903E-03   -0.15969E-02 34551   0.206E-01    0.723E-02
RMM:  14    -0.680263273008E+03   -0.57377E-03   -0.69933E-03 34347   0.105E-01    0.716E-02
RMM:  15    -0.680263454121E+03   -0.18111E-03   -0.21361E-03 34758   0.669E-02    0.484E-02
RMM:  16    -0.680263536956E+03   -0.82835E-04   -0.84163E-04 35099   0.428E-02    0.184E-02
RMM:  17    -0.680263569192E+03   -0.32236E-04   -0.41109E-04 34288   0.256E-02    0.264E-02
RMM:  18    -0.680263580541E+03   -0.11350E-04   -0.11164E-04 33201   0.152E-02    0.931E-03
RMM:  19    -0.680263586403E+03   -0.58614E-05   -0.52428E-05 29986   0.965E-03    0.635E-03
RMM:  20    -0.680263589389E+03   -0.29858E-05   -0.15439E-05 25521   0.706E-03    0.385E-03
RMM:  21    -0.680263588975E+03    0.41375E-06   -0.82052E-06 22421   0.580E-03
   1 F= -.68026359E+03 E0= -.68026359E+03  d E =-.680264E+03
       N       E                     dE             d eps       ncg     rms          rms(c)
DAV:   1    -0.680272110268E+03   -0.85209E-02   -0.97460E-01 24264   0.222E+00    0.291E-01
RMM:   2    -0.680274072862E+03   -0.19626E-02   -0.25237E-02 23719   0.401E-01    0.191E-01
RMM:   3    -0.680273799136E+03    0.27373E-03   -0.17855E-03 26499   0.139E-01    0.144E-01
RMM:   4    -0.680273796200E+03    0.29360E-05   -0.39724E-04 31961   0.318E-02    0.759E-02
RMM:   5    -0.680273798459E+03   -0.22586E-05   -0.87952E-05 32070   0.169E-02    0.897E-03
RMM:   6    -0.680273800495E+03   -0.20362E-05   -0.28578E-05 27249   0.707E-03    0.391E-03
RMM:   7    -0.680273801242E+03   -0.74672E-06   -0.12295E-05 24108   0.532E-03    0.240E-03
RMM:   8    -0.680273801302E+03   -0.60405E-07   -0.33208E-06 16661   0.353E-03
   2 F= -.68027380E+03 E0= -.68027380E+03  d E =-.102123E-01
       N       E                     dE             d eps       ncg     rms          rms(c)
DAV:   1    -0.680278929170E+03   -0.51279E-02   -0.33904E+00 25920   0.406E+00    0.484E-01
RMM:   2    -0.680285030444E+03   -0.61013E-02   -0.77618E-02 23241   0.694E-01    0.314E-01
RMM:   3    -0.680284110199E+03    0.92024E-03   -0.50518E-03 25898   0.238E-01    0.255E-01
RMM:   4    -0.680284088808E+03    0.21391E-04   -0.11335E-03 32163   0.536E-02    0.149E-01
RMM:   5    -0.680284085424E+03    0.33836E-05   -0.29954E-04 32288   0.317E-02    0.142E-02
RMM:   6    -0.680284091694E+03   -0.62693E-05   -0.99204E-05 33155   0.130E-02    0.880E-03
RMM:   7    -0.680284092879E+03   -0.11857E-05   -0.29515E-05 29474   0.793E-03    0.470E-03
RMM:   8    -0.680284093466E+03   -0.58638E-06   -0.13296E-05 25716   0.556E-03    0.181E-03
RMM:   9    -0.680284093624E+03   -0.15816E-06   -0.36744E-06 18300   0.404E-03
   3 F= -.68028409E+03 E0= -.68028409E+03  d E =-.102923E-01
       N       E                     dE             d eps       ncg     rms          rms(c)
DAV:   1    -0.680285532355E+03   -0.14389E-02   -0.23465E-01 25848   0.100E+00    0.885E-02
RMM:   2    -0.680285859499E+03   -0.32714E-03   -0.39415E-03 22430   0.144E-01    0.554E-02
RMM:   3    -0.680285814169E+03    0.45330E-04   -0.22181E-04 23526   0.533E-02    0.451E-02
RMM:   4    -0.680285808477E+03    0.56918E-05   -0.51282E-05 24729   0.114E-02    0.253E-02
RMM:   5    -0.680285806895E+03    0.15821E-05   -0.13270E-05 23657   0.660E-03    0.330E-03
RMM:   6    -0.680285806754E+03    0.14064E-06   -0.11470E-06 13274   0.350E-03
   4 F= -.68028581E+03 E0= -.68028581E+03  d E =-.171313E-02
       N       E                     dE             d eps       ncg     rms          rms(c)
DAV:   1    -0.680287016795E+03   -0.12099E-02   -0.14059E+00 25920   0.252E+00    0.212E-01
RMM:   2    -0.680289114760E+03   -0.20980E-02   -0.24692E-02 22271   0.379E-01    0.128E-01
RMM:   3    -0.680288880128E+03    0.23463E-03   -0.13719E-03 23907   0.130E-01    0.881E-02
RMM:   4    -0.680288836851E+03    0.43276E-04   -0.44212E-04 23717   0.342E-02    0.256E-02
RMM:   5    -0.680288834713E+03    0.21386E-05   -0.42954E-05 26704   0.160E-02    0.762E-03
RMM:   6    -0.680288835544E+03   -0.83113E-06   -0.16353E-05 25325   0.515E-03    0.350E-03
RMM:   7    -0.680288835480E+03    0.63395E-07   -0.40017E-06 16905   0.357E-03
   5 F= -.68028884E+03 E0= -.68028884E+03  d E =-.302873E-02
       N       E                     dE             d eps       ncg     rms          rms(c)
DAV:   1    -0.680289237799E+03   -0.40226E-03   -0.53975E-01 26640   0.161E+00    0.137E-01
RMM:   2    -0.680290132323E+03   -0.89452E-03   -0.10678E-02 22313   0.257E-01    0.748E-02
RMM:   3    -0.680290018485E+03    0.11384E-03   -0.60824E-04 25546   0.818E-02    0.422E-02
RMM:   4    -0.680289999450E+03    0.19035E-04   -0.18500E-04 25527   0.230E-02    0.100E-02
RMM:   5    -0.680289999585E+03   -0.13551E-06   -0.22912E-05 24601   0.120E-02    0.586E-03
RMM:   6    -0.680289999918E+03   -0.33309E-06   -0.78366E-06 21799   0.436E-03
   6 F= -.68029000E+03 E0= -.68029000E+03  d E =-.116444E-02
       N       E                     dE             d eps       ncg     rms          rms(c)
DAV:   1    -0.680289671145E+03    0.32844E-03   -0.63631E-01 25920   0.176E+00    0.160E-01
RMM:   2    -0.680290765514E+03   -0.10944E-02   -0.13525E-02 22472   0.292E-01    0.827E-02
RMM:   3    -0.680290603177E+03    0.16234E-03   -0.80721E-04 26546   0.939E-02    0.450E-02
RMM:   4    -0.680290578131E+03    0.25046E-04   -0.19760E-04 27858   0.244E-02    0.122E-02
RMM:   5    -0.680290579325E+03   -0.11941E-05   -0.31138E-05 28359   0.126E-02    0.671E-03
RMM:   6    -0.680290579782E+03   -0.45713E-06   -0.93892E-06 22282   0.455E-03
   7 F= -.68029058E+03 E0= -.68029058E+03  d E =-.579864E-03
       N       E                     dE             d eps       ncg     rms          rms(c)
DAV:   1    -0.680290616834E+03   -0.37509E-04   -0.33476E-02 25920   0.414E-01    0.493E-02
RMM:   2    -0.680290669741E+03   -0.52907E-04   -0.84279E-04 24520   0.726E-02    0.253E-02
RMM:   3    -0.680290652548E+03    0.17194E-04   -0.60951E-05 28032   0.231E-02    0.120E-02
RMM:   4    -0.680290651150E+03    0.13977E-05   -0.15956E-05 29785   0.703E-03    0.384E-03
RMM:   5    -0.680290651085E+03    0.65025E-07   -0.17960E-06 14131   0.361E-03
   8 F= -.68029065E+03 E0= -.68029065E+03  d E =-.713025E-04
       N       E                     dE             d eps       ncg     rms          rms(c)
DAV:   1    -0.680290682447E+03   -0.31297E-04   -0.36296E-02 25920   0.433E-01    0.618E-02
RMM:   2    -0.680290720014E+03   -0.37567E-04   -0.90008E-04 25009   0.749E-02    0.326E-02
RMM:   3    -0.680290694510E+03    0.25504E-04   -0.76443E-05 27872   0.246E-02    0.126E-02
RMM:   4    -0.680290693425E+03    0.10856E-05   -0.20272E-05 29350   0.781E-03    0.434E-03
RMM:   5    -0.680290693313E+03    0.11193E-06   -0.21469E-06 14719   0.361E-03
   9 F= -.68029069E+03 E0= -.68029069E+03  d E =-.422278E-04
       N       E                     dE             d eps       ncg     rms          rms(c)
DAV:   1    -0.680290726999E+03   -0.33575E-04   -0.14388E-03 25920   0.914E-02    0.176E-02
RMM:   2    -0.680290726610E+03    0.38883E-06   -0.41299E-05 26698   0.160E-02    0.982E-03
RMM:   3    -0.680290724845E+03    0.17652E-05   -0.57562E-06 20789   0.576E-03    0.270E-03
RMM:   4    -0.680290724804E+03    0.41320E-07   -0.96795E-07 12456   0.333E-03
  10 F= -.68029072E+03 E0= -.68029072E+03  d E =-.314914E-04
       N       E                     dE             d eps       ncg     rms          rms(c)
DAV:   1    -0.680290797750E+03   -0.72905E-04   -0.10417E-02 25920   0.243E-01    0.404E-02
RMM:   2    -0.680290802701E+03   -0.49510E-05   -0.27805E-04 24869   0.424E-02    0.225E-02
RMM:   3    -0.680290793065E+03    0.96366E-05   -0.27760E-05 27347   0.143E-02    0.706E-03
RMM:   4    -0.680290792833E+03    0.23140E-06   -0.57970E-06 20486   0.479E-03
  11 F= -.68029079E+03 E0= -.68029079E+03  d E =-.680293E-04
       N       E                     dE             d eps       ncg     rms          rms(c)
DAV:   1    -0.680290810216E+03   -0.17152E-04   -0.10273E-03 28512   0.748E-02    0.520E-03
RMM:   2    -0.680290812731E+03   -0.25140E-05   -0.27346E-05 22253   0.134E-02    0.281E-03
RMM:   3    -0.680290812488E+03    0.24236E-06   -0.10408E-06 10663   0.403E-03    0.179E-03
RMM:   4    -0.680290812450E+03    0.38010E-07   -0.55286E-07 10771   0.206E-03
  12 F= -.68029081E+03 E0= -.68029081E+03  d E =-.196168E-04
       N       E                     dE             d eps       ncg     rms          rms(c)
DAV:   1    -0.680290841892E+03   -0.29404E-04   -0.19479E-02 28512   0.322E-01    0.226E-02
RMM:   2    -0.680290884141E+03   -0.42249E-04   -0.47467E-04 21449   0.562E-02    0.121E-02
RMM:   3    -0.680290881438E+03    0.27038E-05   -0.24112E-05 23029   0.179E-02    0.734E-03
RMM:   4    -0.680290880793E+03    0.64417E-06   -0.90918E-06 20462   0.520E-03
  13 F= -.68029088E+03 E0= -.68029088E+03  d E =-.683433E-04
       N       E                     dE             d eps       ncg     rms          rms(c)
DAV:   1    -0.680290898096E+03   -0.16658E-04   -0.62202E-03 28512   0.178E-01    0.132E-02
RMM:   2    -0.680290910737E+03   -0.12642E-04   -0.14228E-04 21691   0.302E-02    0.754E-03
RMM:   3    -0.680290909665E+03    0.10721E-05   -0.76073E-06 19097   0.957E-03    0.444E-03
RMM:   4    -0.680290909528E+03    0.13682E-06   -0.26565E-06 13650   0.335E-03
  14 F= -.68029091E+03 E0= -.68029091E+03  d E =-.287348E-04
       N       E                     dE             d eps       ncg     rms          rms(c)
DAV:   1    -0.680290919381E+03   -0.97162E-05   -0.60926E-03 28368   0.174E-01    0.130E-02
RMM:   2    -0.680290931147E+03   -0.11766E-04   -0.13381E-04 22001   0.283E-02    0.757E-03
RMM:   3    -0.680290929778E+03    0.13688E-05   -0.64710E-06 17806   0.927E-03    0.493E-03
RMM:   4    -0.680290929599E+03    0.17953E-06   -0.23935E-06 12711   0.331E-03
  15 F= -.68029093E+03 E0= -.68029093E+03  d E =-.200706E-04
