 vasp.5.4.4.18Apr17-6-g9f103f2a35 (build Mar 05 2020 17:21:05) complex          
  
 executed on Linux justhpc1_p2018 date 2024.04.10  19:48:32
 running on   72 total cores
 distrk:  each k-point on   72 cores,    1 groups
 distr:  one band on NCORES_PER_BAND=   1 cores,   72 groups


--------------------------------------------------------------------------------------------------------


 INCAR:
 POTCAR:    PAW_PBE Li 17Jan2003                  
 POTCAR:    PAW_PBE Nb_sv 25May2007               
 POTCAR:    PAW_PBE O 08Apr2002                   
 POTCAR:    PAW_PBE Ta 17Jan2003                  

 ----------------------------------------------------------------------------- 
|                                                                             |
|           W    W    AA    RRRRR   N    N  II  N    N   GGGG   !!!           |
|           W    W   A  A   R    R  NN   N  II  NN   N  G    G  !!!           |
|           W    W  A    A  R    R  N N  N  II  N N  N  G       !!!           |
|           W WW W  AAAAAA  RRRRR   N  N N  II  N  N N  G  GGG   !            |
|           WW  WW  A    A  R   R   N   NN  II  N   NN  G    G                |
|           W    W  A    A  R    R  N    N  II  N    N   GGGG   !!!           |
|                                                                             |
|      For optimal performance we recommend to set                            |
|        NCORE= 4 - approx SQRT( number of cores)                             |
|      NCORE specifies how many cores store one orbital (NPAR=cpu/NCORE).     |
|      This setting can  greatly improve the performance of VASP for DFT.     |
|      The default,   NCORE=1            might be grossly inefficient         |
|      on modern multi-core architectures or massively parallel machines.     |
|      Do your own testing !!!!                                               |
|      Unfortunately you need to use the default for GW and RPA calculations. |
|      (for HF NCORE is supported but not extensively tested yet)             |
|                                                                             |
 ----------------------------------------------------------------------------- 

 POTCAR:    PAW_PBE Li 17Jan2003                  
  local pseudopotential read in
  partial core-charges read in
  partial kinetic energy density read in
  atomic valenz-charges read in
  non local Contribution for L=           0  read in
    real space projection operators read in
  non local Contribution for L=           0  read in
    real space projection operators read in
  non local Contribution for L=           1  read in
    real space projection operators read in
    PAW grid and wavefunctions read in
 
   number of l-projection  operators is LMAX  =           3
   number of lm-projection operators is LMMAX =           5
 
 POTCAR:    PAW_PBE Nb_sv 25May2007               
  local pseudopotential read in
  partial core-charges read in
  partial kinetic energy density read in
  atomic valenz-charges read in
  non local Contribution for L=           0  read in
    real space projection operators read in
  non local Contribution for L=           0  read in
    real space projection operators read in
  non local Contribution for L=           1  read in
    real space projection operators read in
  non local Contribution for L=           1  read in
    real space projection operators read in
  non local Contribution for L=           2  read in
    real space projection operators read in
  non local Contribution for L=           2  read in
    real space projection operators read in
    PAW grid and wavefunctions read in
 
   number of l-projection  operators is LMAX  =           6
   number of lm-projection operators is LMMAX =          18
 
 POTCAR:    PAW_PBE O 08Apr2002                   
  local pseudopotential read in
  partial core-charges read in
  partial kinetic energy density read in
  kinetic energy density of atom read in
  atomic valenz-charges read in
  non local Contribution for L=           0  read in
    real space projection operators read in
  non local Contribution for L=           0  read in
    real space projection operators read in
  non local Contribution for L=           1  read in
    real space projection operators read in
  non local Contribution for L=           1  read in
    real space projection operators read in
    PAW grid and wavefunctions read in
 
   number of l-projection  operators is LMAX  =           4
   number of lm-projection operators is LMMAX =           8
 
 POTCAR:    PAW_PBE Ta 17Jan2003                  
  local pseudopotential read in
  partial core-charges read in
  partial kinetic energy density read in
  atomic valenz-charges read in
  non local Contribution for L=           2  read in
    real space projection operators read in
  non local Contribution for L=           2  read in
    real space projection operators read in
  non local Contribution for L=           0  read in
    real space projection operators read in
  non local Contribution for L=           0  read in
    real space projection operators read in
  non local Contribution for L=           1  read in
    real space projection operators read in
  non local Contribution for L=           1  read in
    real space projection operators read in
    PAW grid and wavefunctions read in
 
   number of l-projection  operators is LMAX  =           6
   number of lm-projection operators is LMMAX =          18
 
 Optimization of the real space projectors (new method)

 maximal supplied QI-value         = 18.33
 optimisation between [QCUT,QGAM] = [ 11.00, 22.18] = [ 33.87,137.76] Ry 
 Optimized for a Real-space Cutoff    1.27 Angstroem

   l    n(q)    QCUT    max X(q) W(low)/X(q) W(high)/X(q)  e(spline) 
   0      8    10.998    33.825    0.29E-04    0.16E-03    0.54E-07
   0      8    10.998     8.944    0.19E-04    0.12E-03    0.42E-07
   1      8    10.998     4.214    0.16E-03    0.32E-04    0.49E-07
 Optimization of the real space projectors (new method)

 maximal supplied QI-value         = 15.68
 optimisation between [QCUT,QGAM] = [ 11.14, 22.27] = [ 34.73,138.91] Ry 
 Optimized for a Real-space Cutoff    1.75 Angstroem

   l    n(q)    QCUT    max X(q) W(low)/X(q) W(high)/X(q)  e(spline) 
   0     12    11.136    10.201    0.25E-04    0.67E-06    0.52E-07
   0     12    11.136     8.174    0.39E-04    0.20E-05    0.97E-07
   1     11    11.136     3.488    0.15E-05    0.92E-05    0.13E-06
   1     11    11.136     4.917    0.87E-05    0.65E-04    0.82E-06
   2     11    11.136   153.744    0.20E-03    0.19E-03    0.13E-05
   2     11    11.136   126.342    0.20E-03    0.19E-03    0.13E-05
 Optimization of the real space projectors (new method)

 maximal supplied QI-value         = 24.76
 optimisation between [QCUT,QGAM] = [ 11.14, 22.28] = [ 34.75,139.00] Ry 
 Optimized for a Real-space Cutoff    1.19 Angstroem

   l    n(q)    QCUT    max X(q) W(low)/X(q) W(high)/X(q)  e(spline) 
   0      8    11.140    20.381    0.23E-03    0.52E-03    0.22E-06
   0      8    11.140    15.268    0.24E-03    0.55E-03    0.24E-06
   1      7    11.140     5.964    0.11E-03    0.44E-03    0.26E-06
   1      7    11.140     5.382    0.84E-04    0.37E-03    0.23E-06
 Optimization of the real space projectors (new method)

 maximal supplied QI-value         = 12.85
 optimisation between [QCUT,QGAM] = [ 11.05, 22.23] = [ 34.20,138.39] Ry 
 Optimized for a Real-space Cutoff    1.65 Angstroem

   l    n(q)    QCUT    max X(q) W(low)/X(q) W(high)/X(q)  e(spline) 
   2     10    11.051    62.315    0.21E-03    0.15E-03    0.40E-06
   2     10    11.051    52.185    0.21E-03    0.15E-03    0.40E-06
   0     11    11.051   103.837    0.25E-04    0.82E-06    0.35E-06
   0     11    11.051    59.728    0.19E-04    0.76E-06    0.31E-06
   1     11    11.051    13.958    0.72E-04    0.92E-04    0.65E-06
   1     11    11.051     8.441    0.56E-04    0.61E-04    0.46E-06

 ----------------------------------------------------------------------------- 
|                                                                             |
|  ADVICE TO THIS USER RUNNING 'VASP/VAMP'   (HEAR YOUR MASTER'S VOICE ...):  |
|                                                                             |
|      You enforced a specific xc-type in the INCAR file,                     |
|      a different type was found on the POTCAR file                          |
|          I HOPE YOU KNOW, WHAT YOU ARE  DOING                               |
|                                                                             |
 ----------------------------------------------------------------------------- 

  PAW_PBE Li 17Jan2003                  :
 energy of atom  1       EATOM=   -5.3001
 kinetic energy error for atom=    0.0000 (will be added to EATOM!!)
  PAW_PBE Nb_sv 25May2007               :
 energy of atom  2       EATOM=-1555.1913
 kinetic energy error for atom=    0.0086 (will be added to EATOM!!)
  PAW_PBE O 08Apr2002                   :
 energy of atom  3       EATOM= -432.3788
 kinetic energy error for atom=    0.0273 (will be added to EATOM!!)
  PAW_PBE Ta 17Jan2003                  :
 energy of atom  4       EATOM= -130.6506
 kinetic energy error for atom=    0.0015 (will be added to EATOM!!)
 
 
 POSCAR: Li Nb  O Ta + -1 %                      
  positions in direct lattice
  velocities in cartesian coordinates
 exchange correlation table for  LEXCH =       14
   RHO(1)=    0.500       N(1)  =     2000
   RHO(2)=  100.500       N(2)  =     4000
 


--------------------------------------------------------------------------------------------------------


 ion  position               nearest neighbor table
   1  0.138  0.139  0.140-  38 2.02  43 2.02  54 2.02  27 2.27  29 2.27  28 2.28  75 3.01  18 3.02
                            20 3.03  22 3.06  78 3.35  76 3.35
   2  0.391  0.390  0.391-  51 2.03  35 2.03  40 2.04  55 2.24  44 2.24  36 2.25  25 2.98  78 3.01
                            76 3.03  19 3.03  79 3.37
   3  0.140  0.140  0.641-  32 2.04  60 2.04  49 2.04  33 2.24  34 2.24  35 2.25  17 3.01  19 3.01
                            21 3.02  79 3.02  80 3.37  75 3.37  77 3.37
   4  0.392  0.391  0.891-  57 2.04  46 2.04  29 2.05  61 2.23  50 2.23  30 2.24  23 2.97  80 3.02
                            77 3.02  75 3.02
   5  0.140  0.639  0.140-  31 2.02  50 2.02  66 2.03  40 2.26  39 2.26  41 2.27  76 2.98  23 3.04
                            21 3.05  17 3.06  75 3.34  77 3.35
   6  0.390  0.890  0.390-  63 2.03  28 2.03  47 2.03  48 2.25  32 2.25  67 2.26  79 2.97  77 3.04
                            75 3.04  24 3.05
   7  0.140  0.639  0.639-  44 2.02  37 2.02  72 2.03  46 2.26  45 2.27  47 2.27  77 2.99  25 3.04
                            18 3.06  20 3.06  76 3.35
   8  0.391  0.891  0.890-  34 2.03  69 2.04  41 2.04  73 2.24  42 2.24  38 2.25  22 2.99  19 3.02
                            76 3.03  26 3.03  79 3.35
   9  0.640  0.141  0.139-  30 2.02  62 2.02  67 2.03  53 2.26  52 2.27  51 2.27  78 2.98  23 3.04
                            17 3.04  79 3.06  80 3.35  75 3.35
  10  0.891  0.392  0.391-  59 2.04  64 2.05  27 2.05  68 2.23  31 2.23  60 2.23  21 2.97  24 3.02
                            80 3.02  75 3.03
  11  0.640  0.140  0.639-  56 2.02  36 2.02  73 2.03  58 2.26  59 2.26  57 2.27  80 2.98  18 3.03
                            25 3.06  22 3.06  78 3.35
  12  0.891  0.392  0.890-  70 2.03  33 2.04  53 2.04  74 2.23  37 2.23  54 2.24  20 2.96  26 3.04
                            78 3.04  19 3.05
  13  0.640  0.641  0.140-  42 2.03  55 2.03  74 2.04  64 2.25  65 2.25  63 2.25  25 3.01  22 3.02
                            24 3.02  20 3.03  76 3.36  78 3.37
  14  0.890  0.890  0.392-  71 2.03  39 2.04  52 2.04  56 2.24  72 2.25  43 2.26  18 2.98  26 3.01
                            78 3.03  76 3.04  79 3.37
  15  0.641  0.640  0.641-  61 2.03  68 2.04  48 2.04  70 2.24  71 2.24  69 2.24  26 2.99  23 3.02
                            79 3.03  21 3.04  80 3.37  77 3.38
  16  0.891  0.891  0.891-  65 2.04  58 2.05  45 2.05  62 2.23  49 2.23  66 2.24  17 2.97  77 3.02
                            80 3.03  24 3.03
  17  1.000  0.002  0.997-  33 1.87  52 1.89  41 1.90  49 2.07  62 2.07  66 2.11  16 2.97   3 3.01
                             9 3.04   5 3.06
  18  0.999  0.000  0.498-  27 1.88  47 1.89  58 1.89  43 2.07  56 2.07  72 2.09  14 2.98   1 3.02
                            11 3.03   7 3.06
  19  0.252  0.249  0.750-  36 1.87  38 1.88  37 1.88  34 2.08  35 2.10  33 2.11   3 3.01   8 3.02
                             2 3.03  12 3.05
  20  0.997  0.498  0.001-  64 1.88  29 1.89  45 1.90  54 2.06  74 2.08  37 2.10  12 2.96  13 3.03
                             1 3.03   7 3.06
  21  0.001  0.497  0.501-  35 1.87  70 1.88  39 1.90  60 2.07  31 2.09  68 2.11  10 2.97   3 3.02
                            15 3.04   5 3.05
  22  0.500  0.997  0.001-  65 1.87  28 1.89  57 1.90  42 2.07  73 2.09  38 2.10   8 2.99  13 3.02
                             1 3.06  11 3.06
  23  0.500  0.500  0.998-  69 1.88  53 1.89  40 1.90  61 2.07  50 2.08  30 2.09   4 2.97  15 3.02
                             9 3.04   5 3.04
  24  0.751  0.749  0.250-  68 1.87  66 1.87  67 1.89  64 2.09  65 2.10  63 2.10  13 3.02  10 3.02
                            16 3.03   6 3.05
  25  0.500  0.501  0.497-  63 1.87  59 1.90  46 1.90  55 2.07  44 2.07  36 2.11   2 2.98  13 3.01
                             7 3.04  11 3.06
  26  0.749  0.751  0.748-  72 1.88  73 1.88  74 1.89  71 2.07  70 2.10  69 2.10  15 2.99  14 3.01
                             8 3.03  12 3.04
  27  0.056  0.181  0.361-  18 1.88  10 2.05  75 2.08   1 2.27
  28  0.361  0.056  0.181-  22 1.89   6 2.03  75 2.07   1 2.28
  29  0.181  0.360  0.056-  20 1.89   4 2.05  75 2.07   1 2.27
  30  0.432  0.306  0.110-  75 1.89   9 2.02  23 2.09   4 2.24
  31  0.109  0.432  0.306-  75 1.90   5 2.02  21 2.09  10 2.23
  32  0.306  0.110  0.431-  75 1.91   3 2.04  79 2.06   6 2.25
  33  0.055  0.182  0.860-  17 1.87  12 2.04  19 2.11   3 2.24
  34  0.359  0.056  0.682-  79 1.90   8 2.03  19 2.08   3 2.24
  35  0.182  0.361  0.556-  21 1.87   2 2.03  19 2.10   3 2.25
  36  0.432  0.305  0.611-  19 1.87  11 2.02  25 2.11   2 2.25
  37  0.111  0.431  0.805-  19 1.88   7 2.02  20 2.10  12 2.23
  38  0.305  0.111  0.932-  19 1.88   1 2.02  22 2.10   8 2.25
  39  0.056  0.681  0.361-  21 1.90  14 2.04  76 2.07   5 2.26
  40  0.361  0.556  0.181-  23 1.90   2 2.04  76 2.06   5 2.26
  41  0.180  0.861  0.056-  17 1.90   8 2.04  76 2.07   5 2.27
  42  0.431  0.807  0.110-  76 1.91  13 2.03  22 2.07   8 2.24
  43  0.110  0.931  0.306-  76 1.91   1 2.02  18 2.07  14 2.26
  44  0.306  0.610  0.431-  76 1.91   7 2.02  25 2.07   2 2.24
  45  0.056  0.680  0.861-  20 1.90  16 2.05  77 2.06   7 2.27
  46  0.361  0.556  0.680-  25 1.90   4 2.04  77 2.07   7 2.26
  47  0.181  0.861  0.556-  18 1.89   6 2.03  77 2.07   7 2.27
  48  0.431  0.806  0.610-  77 1.92  15 2.04  79 2.05   6 2.25
  49  0.110  0.931  0.807-  77 1.90   3 2.04  17 2.07  16 2.23
  50  0.306  0.610  0.932-  77 1.90   5 2.02  23 2.08   4 2.23
  51  0.557  0.181  0.360-  79 1.92   2 2.03  78 2.05   9 2.27
  52  0.861  0.056  0.181-  17 1.89  14 2.04  78 2.07   9 2.27
  53  0.681  0.361  0.056-  23 1.89  12 2.04  78 2.07   9 2.26
  54  0.931  0.306  0.110-  78 1.91   1 2.02  20 2.06  12 2.24
  55  0.610  0.431  0.306-  78 1.91  13 2.03  25 2.07   2 2.24
  56  0.807  0.110  0.431-  78 1.90  11 2.02  18 2.07  14 2.24
  57  0.556  0.180  0.861-  22 1.90   4 2.04  80 2.07  11 2.27
  58  0.861  0.056  0.681-  18 1.89  16 2.05  80 2.07  11 2.26
  59  0.681  0.361  0.556-  25 1.90  10 2.04  80 2.07  11 2.26
  60  0.931  0.306  0.610-  80 1.91   3 2.04  21 2.07  10 2.23
  61  0.610  0.431  0.806-  80 1.90  15 2.03  23 2.07   4 2.23
  62  0.806  0.109  0.931-  80 1.91   9 2.02  17 2.07  16 2.23
  63  0.556  0.682  0.360-  25 1.87   6 2.03  24 2.10  13 2.25
  64  0.860  0.556  0.180-  20 1.88  10 2.05  24 2.09  13 2.25
  65  0.681  0.860  0.056-  22 1.87  16 2.04  24 2.10  13 2.25
  66  0.931  0.805  0.111-  24 1.87   5 2.03  17 2.11  16 2.24
  67  0.611  0.932  0.305-  24 1.89   9 2.03  79 2.08   6 2.26
  68  0.805  0.611  0.431-  24 1.87  15 2.04  21 2.11  10 2.23
  69  0.556  0.681  0.861-  23 1.88   8 2.04  26 2.10  15 2.24
  70  0.861  0.556  0.681-  21 1.88  12 2.03  26 2.10  15 2.24
  71  0.681  0.860  0.557-  79 1.91  14 2.03  26 2.07  15 2.24
  72  0.931  0.805  0.611-  26 1.88   7 2.03  18 2.09  14 2.25
  73  0.610  0.931  0.806-  26 1.88  11 2.03  22 2.09   8 2.24
  74  0.806  0.611  0.930-  26 1.89  13 2.04  20 2.08  12 2.23
  75  0.249  0.250  0.248-  30 1.89  31 1.90  32 1.91  29 2.07  28 2.07  27 2.08   1 3.01   4 3.02
                            10 3.03   6 3.04   5 3.34   9 3.35   3 3.37
  76  0.248  0.748  0.248-  43 1.91  44 1.91  42 1.91  40 2.06  39 2.07  41 2.07   5 2.98   2 3.03
                             8 3.03  14 3.04   7 3.35   1 3.35  13 3.36
  77  0.248  0.747  0.749-  50 1.90  49 1.90  48 1.92  45 2.06  46 2.07  47 2.07   7 2.99  16 3.02
                             4 3.02   6 3.04   5 3.35   3 3.37  15 3.38
  78  0.747  0.248  0.249-  56 1.90  55 1.91  54 1.91  51 2.05  53 2.07  52 2.07   9 2.98   2 3.01
                            14 3.03  12 3.04  11 3.35   1 3.35  13 3.37
  79  0.497  0.998  0.500-  34 1.90  71 1.91  51 1.92  48 2.05  32 2.06  67 2.08   6 2.97   3 3.02
                            15 3.03   9 3.06   8 3.35   2 3.37  14 3.37
  80  0.748  0.248  0.748-  61 1.90  60 1.91  62 1.91  59 2.07  58 2.07  57 2.07  11 2.98   4 3.02
                            10 3.02  16 3.03   9 3.35   3 3.37  15 3.37
 
  Warning from LATTYP: Got some problem with cell dimensions!
  Tried to take original basis but could not verify dimensions!
  LATTYP: Found a triclinic cell.
 ALAT       =    18.1134094090
 B/A-ratio  =     0.5647103122
 C/A-ratio  =     0.6016367188
 COS(alpha) =     0.0001983670
 COS(beta)  =     0.3367853441
 COS(gamma) =     0.8471333656
  
  Lattice vectors:
  
 A1 = ( -10.2303536338,  11.8110675931,  -9.1615581238)
 A2 = (  -5.1139485628,   8.8586948103,  -0.0008569570)
 A3 = (   5.1138153934,   2.9537141544,  -9.1588296288)


Analysis of symmetry for initial positions (statically):
=====================================================================
 Subroutine PRICEL returns:
 Original cell was already a primitive cell.
 

 Routine SETGRP: Setting up the symmetry group for a 
 triclinic supercell.


 Subroutine GETGRP returns: Found  1 space group operations
 (whereof  1 operations were pure point group operations)
 out of a pool of  2 trial point group operations.


The static configuration has the point symmetry C_1 .


Analysis of symmetry for dynamics (positions and initial velocities):
=====================================================================
 Subroutine PRICEL returns:
 Original cell was already a primitive cell.
 

 Routine SETGRP: Setting up the symmetry group for a 
 triclinic supercell.


 Subroutine GETGRP returns: Found  1 space group operations
 (whereof  1 operations were pure point group operations)
 out of a pool of  2 trial point group operations.


The dynamic configuration has the point symmetry C_1 .


 Subroutine INISYM returns: Found  1 space group operations
 (whereof  1 operations are pure point group operations),
 and found     1 'primitive' translations

 
 
 KPOINTS: Autom                                   

Automatic generation of k-mesh.
Space group operators:
 irot       det(A)        alpha          n_x          n_y          n_z        tau_x        tau_y        tau_z
    1     1.000000     0.000000     1.000000     0.000000     0.000000     0.000000     0.000000     0.000000
 
 Subroutine IBZKPT returns following result:
 ===========================================
 
 Found     36 irreducible k-points:
 
 Following reciprocal coordinates:
            Coordinates               Weight
  0.000000  0.000000  0.000000      1.000000
  0.250000 -0.000000 -0.000000      2.000000
  0.500000 -0.000000 -0.000000      1.000000
  0.000000  0.250000 -0.000000      2.000000
  0.250000  0.250000 -0.000000      2.000000
  0.500000  0.250000  0.000000      2.000000
 -0.250000  0.250000  0.000000      2.000000
  0.000000  0.500000 -0.000000      1.000000
  0.250000  0.500000  0.000000      2.000000
  0.500000  0.500000 -0.000000      1.000000
  0.000000 -0.000000  0.250000      2.000000
  0.250000 -0.000000  0.250000      2.000000
  0.500000 -0.000000  0.250000      2.000000
 -0.250000  0.000000  0.250000      2.000000
  0.000000  0.250000  0.250000      2.000000
  0.250000  0.250000  0.250000      2.000000
  0.500000  0.250000  0.250000      2.000000
 -0.250000  0.250000  0.250000      2.000000
 -0.000000  0.500000  0.250000      2.000000
  0.250000  0.500000  0.250000      2.000000
  0.500000  0.500000  0.250000      2.000000
 -0.250000  0.500000  0.250000      2.000000
 -0.000000 -0.250000  0.250000      2.000000
  0.250000 -0.250000  0.250000      2.000000
  0.500000 -0.250000  0.250000      2.000000
 -0.250000 -0.250000  0.250000      2.000000
  0.000000 -0.000000  0.500000      1.000000
  0.250000  0.000000  0.500000      2.000000
  0.500000 -0.000000  0.500000      1.000000
  0.000000  0.250000  0.500000      2.000000
  0.250000  0.250000  0.500000      2.000000
  0.500000  0.250000  0.500000      2.000000
 -0.250000  0.250000  0.500000      2.000000
  0.000000  0.500000  0.500000      1.000000
  0.250000  0.500000  0.500000      2.000000
  0.500000  0.500000  0.500000      1.000000
 
 Following cartesian coordinates:
            Coordinates               Weight
  0.000000  0.000000  0.000000      1.000000
  0.024356 -0.014065  0.009063      2.000000
  0.048712 -0.028131  0.018126      1.000000
 -0.000005  0.028124  0.009067      2.000000
  0.024351  0.014059  0.018130      2.000000
  0.048706 -0.000007  0.027193      2.000000
 -0.024361  0.042190  0.000004      2.000000
 -0.000011  0.056249  0.018134      1.000000
  0.024345  0.042183  0.027197      2.000000
  0.048701  0.028118  0.036260      1.000000
 -0.024355 -0.014059  0.009072      2.000000
  0.000000 -0.028125  0.018135      2.000000
  0.024356 -0.042190  0.027198      2.000000
 -0.048711  0.000006  0.000009      2.000000
 -0.024361  0.014065  0.018139      2.000000
 -0.000005 -0.000000  0.027202      2.000000
  0.024351 -0.014066  0.036265      2.000000
 -0.048717  0.028131  0.009076      2.000000
 -0.024366  0.042189  0.027206      2.000000
 -0.000010  0.028124  0.036269      2.000000
  0.024346  0.014059  0.045332      2.000000
 -0.048722  0.056255  0.018143      2.000000
 -0.024350 -0.042183  0.000005      2.000000
  0.000006 -0.056249  0.009068      2.000000
  0.024362 -0.070314  0.018131      2.000000
 -0.048706 -0.028118 -0.009058      2.000000
 -0.048711 -0.028118  0.018144      1.000000
 -0.024355 -0.042184  0.027207      2.000000
  0.000001 -0.056249  0.036270      1.000000
 -0.048716  0.000006  0.027211      2.000000
 -0.024360 -0.014059  0.036274      2.000000
 -0.000005 -0.028125  0.045337      2.000000
 -0.073072  0.014072  0.018148      2.000000
 -0.048722  0.028130  0.036278      1.000000
 -0.024366  0.014065  0.045341      2.000000
 -0.000010 -0.000000  0.054404      1.000000
 
 TETIRR: Found    192 inequivalent tetrahedra from      384


--------------------------------------------------------------------------------------------------------




 Dimension of arrays:
   k-points           NKPTS =     36   k-points in BZ     NKDIM =     36   number of bands    NBANDS=    288
   number of dos      NEDOS =    301   number of ions     NIONS =     80
   non local maximal  LDIM  =      6   non local SUM 2l+1 LMDIM =     18
   total plane-waves  NPLWV = 512000
   max r-space proj   IRMAX =  13981   max aug-charges    IRDMAX=  42176
   dimension x,y,z NGX =    80 NGY =   80 NGZ =   80
   dimension x,y,z NGXF=   160 NGYF=  160 NGZF=  160
   support grid    NGXF=   160 NGYF=  160 NGZF=  160
   ions per type =              16  10  48   6
   NGX,Y,Z   is equivalent  to a cutoff of  12.20, 12.20, 12.20 a.u.
   NGXF,Y,Z  is equivalent  to a cutoff of  24.40, 24.41, 24.41 a.u.

 SYSTEM =  Li(NbTa)O_3                             
 POSCAR =  Li Nb  O Ta + -1 %                      

 Startparameter for this run:
   NWRITE =      0    write-flag & timer
   PREC   = accura    normal or accurate (medium, high low for compatibility)
   ISTART =      0    job   : 0-new  1-cont  2-samecut
   ICHARG =      2    charge: 1-file 2-atom 10-const
   ISPIN  =      1    spin polarized calculation?
   LNONCOLLINEAR =      F non collinear calculations
   LSORBIT =      F    spin-orbit coupling
   INIWAV =      1    electr: 0-lowe 1-rand  2-diag
   LASPH  =      F    aspherical Exc in radial PAW
   METAGGA=      F    non-selfconsistent MetaGGA calc.

 Electronic Relaxation 1
   ENCUT  =  475.0 eV  34.91 Ry    5.91 a.u.  19.37 19.37 19.37*2*pi/ulx,y,z
   ENINI  =  475.0     initial cutoff
   ENAUG  =  605.4 eV  augmentation charge cutoff
   NELM   =   1000;   NELMIN=  4; NELMDL= -5     # of ELM steps 
   EDIFF  = 0.1E-05   stopping-criterion for ELM
   LREAL  =      T    real-space projection
   NLSPLINE    = F    spline interpolate recip. space projectors
   LCOMPAT=      F    compatible to vasp.4.4
   GGA_COMPAT  = T    GGA compatible to vasp.4.4-vasp.4.6
   LMAXPAW     = -100 max onsite density
   LMAXMIX     =    2 max onsite mixed and CHGCAR
   VOSKOWN=      0    Vosko Wilk Nusair interpolation
   ROPT   =   -0.00025  -0.00025  -0.00025  -0.00025
 Ionic relaxation
   EDIFFG = -.5E-02   stopping-criterion for IOM
   NSW    =    200    number of steps for IOM
   NBLOCK =      1;   KBLOCK =    200    inner block; outer block 
   IBRION =      1    ionic relax: 0-MD 1-quasi-New 2-CG
   NFREE  =      0    steps in history (QN), initial steepest desc. (CG)
   ISIF   =      4    stress and relaxation
   IWAVPR =     11    prediction:  0-non 1-charg 2-wave 3-comb
   ISYM   =      2    0-nonsym 1-usesym 2-fastsym
   LCORR  =      T    Harris-Foulkes like correction to forces

   POTIM  = 0.1500    time-step for ionic-motion
   TEIN   =    0.0    initial temperature
   TEBEG  =    0.0;   TEEND  =   0.0 temperature during run
   SMASS  =  -3.00    Nose mass-parameter (am)
   estimated Nose-frequenzy (Omega)   =  0.10E-29 period in steps =****** mass=  -0.272E-26a.u.
   SCALEE = 1.0000    scale energy and forces
   NPACO  =    256;   APACO  = 16.0  distance and # of slots for P.C.
   PSTRESS=    0.0 pullay stress

  Mass of Ions in am
   POMASS =   7.01 92.91 16.00180.95
  Ionic Valenz
   ZVAL   =   1.00 13.00  6.00  5.00
  Atomic Wigner-Seitz radii
   RWIGS  =  -1.00 -1.00 -1.00 -1.00
  virtual crystal weights 
   VCA    =   1.00  1.00  1.00  1.00
   NELECT =     464.0000    total number of electrons
   NUPDOWN=      -1.0000    fix difference up-down

 DOS related values:
   EMIN   =  10.00;   EMAX   =-10.00  energy-range for DOS
   EFERMI =   0.00
   ISMEAR =    -5;   SIGMA  =   0.05  broadening in eV -4-tet -1-fermi 0-gaus

 Electronic relaxation 2 (details)
   IALGO  =     68    algorithm
   LDIAG  =      T    sub-space diagonalisation (order eigenvalues)
   LSUBROT=      F    optimize rotation matrix (better conditioning)
   TURBO    =      0    0=normal 1=particle mesh
   IRESTART =      0    0=no restart 2=restart with 2 vectors
   NREBOOT  =      0    no. of reboots
   NMIN     =      0    reboot dimension
   EREF     =   0.00    reference energy to select bands
   IMIX   =      4    mixing-type and parameters
     AMIX     =   0.40;   BMIX     =  1.00
     AMIX_MAG =   1.60;   BMIX_MAG =  1.00
     AMIN     =   0.10
     WC   =   100.;   INIMIX=   1;  MIXPRE=   1;  MAXMIX= -45

 Intra band minimization:
   WEIMIN = 0.0010     energy-eigenvalue tresh-hold
   EBREAK =  0.87E-09  absolut break condition
   DEPER  =   0.30     relativ break condition  

   TIME   =   0.40     timestep for ELM

  volume/ion in A,a.u.               =      10.38        70.03
  Fermi-wavevector in a.u.,A,eV,Ry     =   1.348517  2.548328 24.742169  1.818498
  Thomas-Fermi vector in A             =   2.476179
 
 Write flags
   LWAVE        =      F    write WAVECAR
   LDOWNSAMPLE  =      F    k-point downsampling of WAVECAR
   LCHARG       =      F    write CHGCAR
   LVTOT        =      F    write LOCPOT, total local potential
   LVHAR        =      F    write LOCPOT, Hartree potential only
   LELF         =      F    write electronic localiz. function (ELF)
   LORBIT       =      0    0 simple, 1 ext, 2 COOP (PROOUT), +10 PAW based schemes


 Dipole corrections
   LMONO  =      F    monopole corrections only (constant potential shift)
   LDIPOL =      F    correct potential (dipole corrections)
   IDIPOL =      0    1-x, 2-y, 3-z, 4-all directions 
   EPSILON=  1.0000000 bulk dielectric constant

 Exchange correlation treatment:
   GGA     =    PS    GGA type
   LEXCH   =    14    internal setting for exchange type
   VOSKOWN=      0    Vosko Wilk Nusair interpolation
   LHFCALC =     F    Hartree Fock is set to
   LHFONE  =     F    Hartree Fock one center treatment
   AEXX    =    0.0000 exact exchange contribution

 Linear response parameters
   LEPSILON=     F    determine dielectric tensor
   LRPA    =     F    only Hartree local field effects (RPA)
   LNABLA  =     F    use nabla operator in PAW spheres
   LVEL    =     F    velocity operator in full k-point grid
   LINTERFAST=   F  fast interpolation
   KINTER  =     0    interpolate to denser k-point grid
   CSHIFT  =0.1000    complex shift for real part using Kramers Kronig
   OMEGAMAX=  -1.0    maximum frequency
   DEG_THRESHOLD= 0.2000000E-02 threshold for treating states as degnerate
   RTIME   =   -0.100 relaxation time in fs
  (WPLASMAI=    0.000 imaginary part of plasma frequency in eV, 0.658/RTIME)
   DFIELD  = 0.0000000 0.0000000 0.0000000 field for delta impulse in time
 
 Orbital magnetization related:
   ORBITALMAG=     F  switch on orbital magnetization
   LCHIMAG   =     F  perturbation theory with respect to B field
   DQ        =  0.001000  dq finite difference perturbation B field
   LLRAUG    =     F  two centre corrections for induced B field



--------------------------------------------------------------------------------------------------------


 quasi-Newton-method for relaxation of ions
 charge density and potential will be updated during run
 non-spin polarized calculation
 RMM-DIIS sequential band-by-band and
  variant of blocked Davidson during initial phase
 perform sub-space diagonalisation
    before iterative eigenvector-optimisation
 modified Broyden-mixing scheme, WC =      100.0
 initial mixing is a Kerker type mixing with AMIX =  0.4000 and BMIX =      1.0000
 Hartree-type preconditioning will be used
 using additional bands           56
 real space projection scheme for non local part
 use partial core corrections
 calculate Harris-corrections to forces 
   (improved forces if not selfconsistent)
 use gradient corrections 
 use of overlap-Matrix (Vanderbilt PP)
 Fermi weights with tetrahedron method with Bloechl corrections


--------------------------------------------------------------------------------------------------------


  energy-cutoff  :      475.00
  volume of cell :      830.18
      direct lattice vectors                 reciprocal lattice vectors
     5.116405071 -2.952372783  9.160701167     0.097750352 -0.056450591  0.036373462
     0.002456508  5.906322028  9.159844210    -0.000021457  0.112874580  0.036389968
    -5.113815393 -2.953714154  9.158829629    -0.097748867 -0.056424957  0.036409362

  length of vectors
    10.900117053 10.898962881 10.897692203     0.118595233  0.118595535  0.118592826


 
 k-points in units of 2pi/SCALE and weight: Autom                                   
   0.00000000  0.00000000  0.00000000       0.016
   0.02435586 -0.01406545  0.00906295       0.031
   0.04871171 -0.02813090  0.01812591       0.016
  -0.00000535  0.02812427  0.00906707       0.031
   0.02435051  0.01405882  0.01813002       0.031
   0.04870637 -0.00000663  0.02719297       0.031
  -0.02436120  0.04218972  0.00000411       0.031
  -0.00001069  0.05624853  0.01813413       0.016
   0.02434516  0.04218309  0.02719708       0.031
   0.04870102  0.02811764  0.03626004       0.016
  -0.02435549 -0.01405906  0.00907190       0.031
   0.00000037 -0.02812451  0.01813485       0.031
   0.02435623 -0.04218996  0.02719780       0.031
  -0.04871134  0.00000639  0.00000895       0.031
  -0.02436083  0.01406521  0.01813896       0.031
  -0.00000498 -0.00000024  0.02720192       0.031
   0.02435088 -0.01406569  0.03626487       0.031
  -0.04871669  0.02813065  0.00907601       0.031
  -0.02436618  0.04218947  0.02720603       0.031
  -0.00001032  0.02812403  0.03626898       0.031
   0.02434553  0.01405858  0.04533193       0.031
  -0.04872204  0.05625492  0.01814308       0.031
  -0.02435014 -0.04218333  0.00000483       0.031
   0.00000572 -0.05624878  0.00906779       0.031
   0.02436157 -0.07031422  0.01813074       0.031
  -0.04870600 -0.02811788 -0.00905812       0.031
  -0.04871097 -0.02811812  0.01814380       0.016
  -0.02435512 -0.04218357  0.02720675       0.031
   0.00000074 -0.05624902  0.03626970       0.016
  -0.04871632  0.00000615  0.02721086       0.031
  -0.02436046 -0.01405930  0.03627381       0.031
  -0.00000461 -0.02812475  0.04533677       0.031
  -0.07307217  0.01407159  0.01814791       0.031
  -0.04872167  0.02813041  0.03627793       0.016
  -0.02436581  0.01406497  0.04534088       0.031
  -0.00000995 -0.00000048  0.05440383       0.016
 
 k-points in reciprocal lattice and weights: Autom                                   
   0.00000000  0.00000000  0.00000000       0.016
   0.25000000 -0.00000000 -0.00000000       0.031
   0.50000000 -0.00000000 -0.00000000       0.016
   0.00000000  0.25000000 -0.00000000       0.031
   0.25000000  0.25000000 -0.00000000       0.031
   0.50000000  0.25000000  0.00000000       0.031
  -0.25000000  0.25000000  0.00000000       0.031
   0.00000000  0.50000000 -0.00000000       0.016
   0.25000000  0.50000000  0.00000000       0.031
   0.50000000  0.50000000 -0.00000000       0.016
   0.00000000 -0.00000000  0.25000000       0.031
   0.25000000 -0.00000000  0.25000000       0.031
   0.50000000 -0.00000000  0.25000000       0.031
  -0.25000000  0.00000000  0.25000000       0.031
   0.00000000  0.25000000  0.25000000       0.031
   0.25000000  0.25000000  0.25000000       0.031
   0.50000000  0.25000000  0.25000000       0.031
  -0.25000000  0.25000000  0.25000000       0.031
  -0.00000000  0.50000000  0.25000000       0.031
   0.25000000  0.50000000  0.25000000       0.031
   0.50000000  0.50000000  0.25000000       0.031
  -0.25000000  0.50000000  0.25000000       0.031
  -0.00000000 -0.25000000  0.25000000       0.031
   0.25000000 -0.25000000  0.25000000       0.031
   0.50000000 -0.25000000  0.25000000       0.031
  -0.25000000 -0.25000000  0.25000000       0.031
   0.00000000 -0.00000000  0.50000000       0.016
   0.25000000  0.00000000  0.50000000       0.031
   0.50000000 -0.00000000  0.50000000       0.016
   0.00000000  0.25000000  0.50000000       0.031
   0.25000000  0.25000000  0.50000000       0.031
   0.50000000  0.25000000  0.50000000       0.031
  -0.25000000  0.25000000  0.50000000       0.031
   0.00000000  0.50000000  0.50000000       0.016
   0.25000000  0.50000000  0.50000000       0.031
   0.50000000  0.50000000  0.50000000       0.016
 
 position of ions in fractional coordinates (direct lattice) 
   0.13834752  0.13936271  0.13984335
   0.39146324  0.38999630  0.39085144
   0.14028321  0.14032414  0.64092124
   0.39173469  0.39088444  0.89059988
   0.14005761  0.63914415  0.13990376
   0.38998511  0.89022976  0.39046082
   0.14027342  0.63856692  0.63942290
   0.39066873  0.89122478  0.89017412
   0.63968950  0.14081636  0.13851063
   0.89081879  0.39199278  0.39127564
   0.64044608  0.13979598  0.63895884
   0.89104424  0.39188824  0.88993991
   0.63987068  0.64050964  0.14005521
   0.88952244  0.89019616  0.39154151
   0.64095434  0.64008558  0.64144699
   0.89103108  0.89076076  0.89134632
   0.99959237  0.00150112  0.99675172
   0.99938324  0.00003493  0.49763958
   0.25168038  0.24891337  0.74959517
   0.99749990  0.49794372  0.00086033
   0.00052440  0.49715140  0.50088067
   0.49988249  0.99738472  0.00090131
   0.49954620  0.50003968  0.99785757
   0.75097315  0.74942469  0.24984287
   0.49985523  0.50129758  0.49655071
   0.74940214  0.75095878  0.74802348
   0.05623360  0.18120304  0.36059596
   0.36055215  0.05618073  0.18135900
   0.18067803  0.36043515  0.05635112
   0.43164615  0.30579781  0.11007695
   0.10933811  0.43208088  0.30572184
   0.30616879  0.11038237  0.43144631
   0.05540035  0.18155956  0.86034038
   0.35943918  0.05639020  0.68203455
   0.18159346  0.36067916  0.55556672
   0.43176800  0.30520898  0.61104129
   0.11066152  0.43074915  0.80539644
   0.30515946  0.11079423  0.93190663
   0.05604537  0.68076856  0.36081137
   0.36061507  0.55618152  0.18081868
   0.18040413  0.86090372  0.05629587
   0.43096027  0.80670950  0.10983535
   0.11018018  0.93120277  0.30647725
   0.30631393  0.60963452  0.43142758
   0.05642617  0.67983109  0.86072292
   0.36082901  0.55621291  0.68039936
   0.18050111  0.86073339  0.55625759
   0.43105925  0.80638098  0.60992686
   0.10974163  0.93076687  0.80662904
   0.30592914  0.60973059  0.93157562
   0.55668960  0.18089021  0.36049958
   0.86099568  0.05588109  0.18065345
   0.68094161  0.36072792  0.05606070
   0.93094987  0.30643726  0.10970186
   0.61015919  0.43137998  0.30635721
   0.80662739  0.10979363  0.43135599
   0.55625493  0.18016866  0.86082204
   0.86060460  0.05601788  0.68054061
   0.68056339  0.36084158  0.55626059
   0.93128773  0.30623948  0.60979445
   0.61008613  0.43101265  0.80636497
   0.80623116  0.10929440  0.93147945
   0.55554077  0.68183433  0.36007734
   0.86007458  0.55634829  0.18046819
   0.68107200  0.86046774  0.05575260
   0.93136114  0.80492582  0.11095065
   0.61067752  0.93165297  0.30547765
   0.80503784  0.61074302  0.43111591
   0.55556968  0.68082022  0.86090541
   0.86059508  0.55581627  0.68050717
   0.68097931  0.85972506  0.55655493
   0.93138973  0.80539064  0.61084254
   0.61024363  0.93134011  0.80571432
   0.80584636  0.61083297  0.93009391
   0.24862253  0.24992729  0.24762435
   0.24806756  0.74806531  0.24849505
   0.24752603  0.74745881  0.74934160
   0.74730972  0.24776208  0.24918815
   0.49682629  0.99767190  0.50015434
   0.74834988  0.24827406  0.74832874
 
 position of ions in cartesian coordinates  (Angst):
  -0.00694876  0.00161034  3.82470244
   0.00510044 -0.00676508 10.73812486
  -2.55946249 -1.47846690  8.44052835
  -2.54912980 -1.47843496 15.32585758
   0.00271955  2.94825320  8.41884141
   0.00076412  2.95329260 15.30306708
  -2.55062638  1.46876997 12.99054187
  -2.55117737  1.48114092 19.89523272
   2.56493875 -1.46601590  8.41845559
   2.55784131 -1.47050995 15.33474444
   0.00960739 -2.95245726 12.99955974
   0.00891754 -2.94470473 19.90303328
   2.55919455  1.48023636 13.01137437
   2.55107289  1.47508162 19.88876945
   0.00071295 -0.00643561 17.60957907
   0.00288355 -0.00231823 24.48538838
   0.01711887 -5.88642292 18.29979623
   2.56841264 -4.42023067 13.71316731
  -2.54498111 -1.48698160 11.45099089
   5.10043714 -0.00651676 13.70676499
  -2.55750698  1.45532974  9.14611390
   2.55544227  4.41237368 13.72341765
  -2.54575033 -1.46883728 18.29568650
   2.56647353  1.47122645 16.03232232
   0.01942460  0.01839708 13.71865549
   0.01083568  0.01344238 20.59473404
  -1.55586214 -0.16087641  5.47756781
   0.91743241 -1.26834553  5.47855344
   0.63713819  1.42897208  5.47277757
   1.64631458  0.20662418  7.76341773
  -1.00292560  1.32618706  7.75946155
  -0.63958208 -1.52633963  7.76734943
  -4.11572524 -1.63241285 10.05027429
  -1.64862385 -2.74267490 10.05587854
  -1.91107397 -0.04682959 10.05562933
  -0.91490260 -1.27691890 12.34738735
  -3.55140145 -0.16148175 12.33582096
  -3.20400688 -2.99914389 12.34550666
  -1.55669960  2.78963790 10.05375864
   0.92174567  1.68623034 10.05411038
   0.63724870  4.38587244 10.05397657
   1.64527130  3.16790849 12.34319494
  -1.00125410  4.26944425 12.34597288
  -0.63751731  1.42203113 12.34157928
  -4.11120899  1.30638081 14.62726475
  -1.63192302  0.21016563 14.63193214
  -1.91896741  2.90783608 14.63236898
  -0.91159874  1.68854858 16.92134529
  -3.56118295  2.79085902 16.91876780
  -3.19715052 -0.05355977 16.91970506
   1.00516555 -1.63997214 10.05834747
   3.48151151 -2.74552717 10.05376039
   3.19817517 -0.04540549 10.05556456
   4.20287432 -1.26262189 12.33981176
   1.55622700 -0.15843991 12.34673295
   1.92142729 -3.00709049 12.34568102
  -1.55561685 -3.12076005 14.63012445
   0.92318030 -4.22008839 14.62981204
   0.63831045 -1.52106507 14.63438644
   1.64722130 -2.74191806 16.92135805
  -1.00109504 -1.63727381 16.92218488
  -0.63814026 -4.48609106 16.91802400
   1.00267751  1.32340411 14.63252621
   3.47897561  0.21365995 14.62782732
   3.20164547  2.90674392 14.63147606
   4.19981705  1.67670929 16.92109431
   1.56460587  2.79740107 16.92584812
   1.91575282 -0.04292000 16.91753920
  -1.55831937 -0.16197382 19.21050104
   0.92453037 -1.26799129 19.20749396
   0.64015873  1.42340410 19.21058728
   1.64360961  0.20283251 21.50403860
  -0.99573283  1.31927815 21.50059009
  -0.63179161 -1.51861420 21.49582415
   0.00636230  0.01071312  6.83480094
   0.00029394  2.95194337 11.40055823
  -2.56371505  1.47060239 15.97721029
   2.54984568 -1.47900484 11.39761487
  -0.01328162  2.94844214 18.27062470
   0.00265603 -2.95337045 15.98337677
 


--------------------------------------------------------------------------------------------------------


 k-point  1 :   0.0000 0.0000 0.0000  plane waves:   19531
 k-point  2 :   0.2500-0.0000-0.0000  plane waves:   19530
 k-point  3 :   0.5000-0.0000-0.0000  plane waves:   19516
 k-point  4 :   0.0000 0.2500-0.0000  plane waves:   19527
 k-point  5 :   0.2500 0.2500-0.0000  plane waves:   19510
 k-point  6 :   0.5000 0.2500 0.0000  plane waves:   19525
 k-point  7 :  -0.2500 0.2500 0.0000  plane waves:   19511
 k-point  8 :   0.0000 0.5000-0.0000  plane waves:   19512
 k-point  9 :   0.2500 0.5000 0.0000  plane waves:   19525
 k-point 10 :   0.5000 0.5000-0.0000  plane waves:   19540
 k-point 11 :   0.0000-0.0000 0.2500  plane waves:   19529
 k-point 12 :   0.2500-0.0000 0.2500  plane waves:   19515
 k-point 13 :   0.5000-0.0000 0.2500  plane waves:   19527
 k-point 14 :  -0.2500 0.0000 0.2500  plane waves:   19510
 k-point 15 :   0.0000 0.2500 0.2500  plane waves:   19514
 k-point 16 :   0.2500 0.2500 0.2500  plane waves:   19539
 k-point 17 :   0.5000 0.2500 0.2500  plane waves:   19510
 k-point 18 :  -0.2500 0.2500 0.2500  plane waves:   19522
 k-point 19 :  -0.0000 0.5000 0.2500  plane waves:   19527
 k-point 20 :   0.2500 0.5000 0.2500  plane waves:   19509
 k-point 21 :   0.5000 0.5000 0.2500  plane waves:   19503
 k-point 22 :  -0.2500 0.5000 0.2500  plane waves:   19509
 k-point 23 :  -0.0000-0.2500 0.2500  plane waves:   19512
 k-point 24 :   0.2500-0.2500 0.2500  plane waves:   19519
 k-point 25 :   0.5000-0.2500 0.2500  plane waves:   19507
 k-point 26 :  -0.2500-0.2500 0.2500  plane waves:   19517
 k-point 27 :   0.0000-0.0000 0.5000  plane waves:   19520
 k-point 28 :   0.2500 0.0000 0.5000  plane waves:   19525
 k-point 29 :   0.5000-0.0000 0.5000  plane waves:   19532
 k-point 30 :   0.0000 0.2500 0.5000  plane waves:   19525
 k-point 31 :   0.2500 0.2500 0.5000  plane waves:   19509
 k-point 32 :   0.5000 0.2500 0.5000  plane waves:   19504
 k-point 33 :  -0.2500 0.2500 0.5000  plane waves:   19512
 k-point 34 :   0.0000 0.5000 0.5000  plane waves:   19532
 k-point 35 :   0.2500 0.5000 0.5000  plane waves:   19503
 k-point 36 :   0.5000 0.5000 0.5000  plane waves:   19508

 maximum and minimum number of plane-waves per node :     19540    19503

 maximum number of plane-waves:     19540
 maximum index in each direction: 
   IXMAX=   19   IYMAX=   19   IZMAX=   19
   IXMIN=  -19   IYMIN=  -19   IZMIN=  -19


 serial   3D FFT for wavefunctions
 parallel 3D FFT for charge:
    minimum data exchange during FFTs selected (reduces bandwidth)


 total amount of memory used by VASP MPI-rank0   178254. kBytes
=======================================================================

   base      :      30000. kBytes
   nonlr-proj:      69324. kBytes
   fftplans  :       4575. kBytes
   grid      :      26165. kBytes
   one-center:       1244. kBytes
   wavefun   :      46946. kBytes
 
     INWAV:  cpu time    0.0000: real time    0.0000
 Broyden mixing: mesh for mixing (old mesh)
   NGX = 39   NGY = 39   NGZ = 39
  (NGX  =160   NGY  =160   NGZ  =160)
  gives a total of  59319 points

 initial charge density was supplied:
 charge density of overlapping atoms calculated
 number of electron     464.0000000 magnetization 
 keeping initial charge density in first step


--------------------------------------------------------------------------------------------------------


 Maximum index for non-local projection operator        13553
 Maximum index for augmentation-charges         1315 (set IRDMAX)


--------------------------------------------------------------------------------------------------------


 First call to EWALD:  gamma=   0.189
 Maximum number of real-space cells 3x 3x 3
 Maximum number of reciprocal cells 3x 3x 3

    FEWALD:  cpu time    0.0029: real time    0.0029


--------------------------------------- Iteration      1(   1)  ---------------------------------------


    POTLOK:  cpu time    0.0749: real time    0.0988
    SETDIJ:  cpu time    0.0116: real time    0.0116
     EDDAV:  cpu time   26.6536: real time   26.6490
 BZINTS: Fermi energy: 19.401553;464.000000 electrons
         Band energy: 264.542266;  BLOECHL correction: -0.036348
       DOS:  cpu time    0.0609: real time    0.0609
    --------------------------------------------
      LOOP:  cpu time   26.8010: real time   26.8204

 eigenvalue-minimisations  : 20736
 total energy-change (2. order) : 0.3644466E+04  (-0.2461710E+05)
 number of electron     464.0000000 magnetization 
 augmentation part      464.0000000 magnetization 

 Free energy of the ion-electron system (eV)
  ---------------------------------------------------
  alpha Z        PSCENC =      1657.51521512
  Ewald energy   TEWEN  =    -26889.04147160
  -Hartree energ DENC   =    -10593.51483879
  -exchange      EXHF   =         0.00000000
  -V(xc)+E(xc)   XCENC  =      1468.59413161
  PAW double counting   =     30201.20122080   -29545.67637776
  entropy T*S    EENTRO =         0.00000000
  eigenvalues    EBANDS =       264.54226585
  atomic energy  EATOM  =     37080.84622879
  Solvation  Ediel_sol  =         0.00000000
  ---------------------------------------------------
  free energy    TOTEN  =      3644.46637402 eV

  energy without entropy =     3644.46637402  energy(sigma->0) =     3644.46637402


--------------------------------------------------------------------------------------------------------




--------------------------------------- Iteration      1(   2)  ---------------------------------------


     EDDAV:  cpu time   39.4453: real time   39.4556
 BZINTS: Fermi energy:  1.230555;464.000000 electrons
         Band energy:***********;  BLOECHL correction:  0.000000
       DOS:  cpu time    0.0101: real time    0.0101
    --------------------------------------------
      LOOP:  cpu time   39.4554: real time   39.4657

 eigenvalue-minimisations  : 31104
 total energy-change (2. order) :-0.4202154E+04  (-0.4140454E+04)
 number of electron     464.0000000 magnetization 
 augmentation part      464.0000000 magnetization 

 Free energy of the ion-electron system (eV)
  ---------------------------------------------------
  alpha Z        PSCENC =      1657.51521512
  Ewald energy   TEWEN  =    -26889.04147160
  -Hartree energ DENC   =    -10593.51483879
  -exchange      EXHF   =         0.00000000
  -V(xc)+E(xc)   XCENC  =      1468.59413161
  PAW double counting   =     30201.20122080   -29545.67637776
  entropy T*S    EENTRO =         0.00000000
  eigenvalues    EBANDS =     -3937.61205495
  atomic energy  EATOM  =     37080.84622879
  Solvation  Ediel_sol  =         0.00000000
  ---------------------------------------------------
  free energy    TOTEN  =      -557.68794678 eV

  energy without entropy =     -557.68794678  energy(sigma->0) =     -557.68794678


--------------------------------------------------------------------------------------------------------




--------------------------------------- Iteration      1(   3)  ---------------------------------------


     EDDAV:  cpu time   39.3040: real time   39.3145
 BZINTS: Fermi energy:  0.421865;464.000000 electrons
         Band energy:***********;  BLOECHL correction:  0.000000
       DOS:  cpu time    0.0102: real time    0.0102
    --------------------------------------------
      LOOP:  cpu time   39.3142: real time   39.3247

 eigenvalue-minimisations  : 31104
 total energy-change (2. order) :-0.2412045E+03  (-0.2403557E+03)
 number of electron     464.0000000 magnetization 
 augmentation part      464.0000000 magnetization 

 Free energy of the ion-electron system (eV)
  ---------------------------------------------------
  alpha Z        PSCENC =      1657.51521512
  Ewald energy   TEWEN  =    -26889.04147160
  -Hartree energ DENC   =    -10593.51483879
  -exchange      EXHF   =         0.00000000
  -V(xc)+E(xc)   XCENC  =      1468.59413161
  PAW double counting   =     30201.20122080   -29545.67637776
  entropy T*S    EENTRO =         0.00000000
  eigenvalues    EBANDS =     -4178.81653951
  atomic energy  EATOM  =     37080.84622879
  Solvation  Ediel_sol  =         0.00000000
  ---------------------------------------------------
  free energy    TOTEN  =      -798.89243134 eV

  energy without entropy =     -798.89243134  energy(sigma->0) =     -798.89243134


--------------------------------------------------------------------------------------------------------




--------------------------------------- Iteration      1(   4)  ---------------------------------------


     EDDAV:  cpu time   45.7138: real time   45.7241
 BZINTS: Fermi energy:  0.300384;464.000000 electrons
         Band energy:***********;  BLOECHL correction:  0.000000
       DOS:  cpu time    0.0086: real time    0.0086
    --------------------------------------------
      LOOP:  cpu time   45.7223: real time   45.7326

 eigenvalue-minimisations  : 36216
 total energy-change (2. order) :-0.1086643E+02  (-0.1085753E+02)
 number of electron     464.0000000 magnetization 
 augmentation part      464.0000000 magnetization 

 Free energy of the ion-electron system (eV)
  ---------------------------------------------------
  alpha Z        PSCENC =      1657.51521512
  Ewald energy   TEWEN  =    -26889.04147160
  -Hartree energ DENC   =    -10593.51483879
  -exchange      EXHF   =         0.00000000
  -V(xc)+E(xc)   XCENC  =      1468.59413161
  PAW double counting   =     30201.20122080   -29545.67637776
  entropy T*S    EENTRO =         0.00000000
  eigenvalues    EBANDS =     -4189.68297425
  atomic energy  EATOM  =     37080.84622879
  Solvation  Ediel_sol  =         0.00000000
  ---------------------------------------------------
  free energy    TOTEN  =      -809.75886609 eV

  energy without entropy =     -809.75886609  energy(sigma->0) =     -809.75886609


--------------------------------------------------------------------------------------------------------




--------------------------------------- Iteration      1(   5)  ---------------------------------------


     EDDAV:  cpu time   40.1112: real time   40.1208
 BZINTS: Fermi energy:  0.357512;464.000000 electrons
         Band energy:***********;  BLOECHL correction:  0.000000
       DOS:  cpu time    0.0100: real time    0.0100
    CHARGE:  cpu time    0.9973: real time    0.9971
    MIXING:  cpu time    0.0012: real time    0.0012
    --------------------------------------------
      LOOP:  cpu time   41.1197: real time   41.1292

 eigenvalue-minimisations  : 32112
 total energy-change (2. order) :-0.2099349E+00  (-0.2099299E+00)
 number of electron     463.9999969 magnetization 
 augmentation part       51.8255573 magnetization 

 Broyden mixing:
  rms(total) = 0.10764E+02    rms(broyden)= 0.10763E+02
  rms(prec ) = 0.12639E+02
  weight for this iteration     100.00

 Free energy of the ion-electron system (eV)
  ---------------------------------------------------
  alpha Z        PSCENC =      1657.51521512
  Ewald energy   TEWEN  =    -26889.04147160
  -Hartree energ DENC   =    -10593.51483879
  -exchange      EXHF   =         0.00000000
  -V(xc)+E(xc)   XCENC  =      1468.59413161
  PAW double counting   =     30201.20122080   -29545.67637776
  entropy T*S    EENTRO =         0.00000000
  eigenvalues    EBANDS =     -4189.89290914
  atomic energy  EATOM  =     37080.84622879
  Solvation  Ediel_sol  =         0.00000000
  ---------------------------------------------------
  free energy    TOTEN  =      -809.96880098 eV

  energy without entropy =     -809.96880098  energy(sigma->0) =     -809.96880098


--------------------------------------------------------------------------------------------------------




--------------------------------------- Iteration      1(   6)  ---------------------------------------


    POTLOK:  cpu time    0.0498: real time    0.0703
    SETDIJ:  cpu time    0.0107: real time    0.0108
    EDDIAG:  cpu time    3.9703: real time    3.9698
  RMM-DIIS:  cpu time   13.9597: real time   13.9582
    ORTHCH:  cpu time    0.5560: real time    0.5559
 BZINTS: Fermi energy:  3.513028;464.000000 electrons
         Band energy:***********;  BLOECHL correction:  0.000000
       DOS:  cpu time    0.0103: real time    0.0103
    CHARGE:  cpu time    0.9961: real time    0.9959
    MIXING:  cpu time    0.0013: real time    0.0013
    --------------------------------------------
      LOOP:  cpu time   19.5542: real time   19.5726

 eigenvalue-minimisations  : 23515
 total energy-change (2. order) : 0.1201772E+03  (-0.6681996E+02)
 number of electron     463.9999976 magnetization 
 augmentation part       45.0694590 magnetization 

 Broyden mixing:
  rms(total) = 0.51040E+01    rms(broyden)= 0.51025E+01
  rms(prec ) = 0.52525E+01
  weight for this iteration     100.00

 eigenvalues of (default mixing * dielectric matrix)
  average eigenvalue GAMMA=   1.1247
  1.1247

 Free energy of the ion-electron system (eV)
  ---------------------------------------------------
  alpha Z        PSCENC =      1657.51521512
  Ewald energy   TEWEN  =    -26889.04147160
  -Hartree energ DENC   =    -11090.49910763
  -exchange      EXHF   =         0.00000000
  -V(xc)+E(xc)   XCENC  =      1522.42350513
  PAW double counting   =     36516.31392930   -35893.70869919
  entropy T*S    EENTRO =         0.00000000
  eigenvalues    EBANDS =     -3593.64119109
  atomic energy  EATOM  =     37080.84622879
  Solvation  Ediel_sol  =         0.00000000
  ---------------------------------------------------
  free energy    TOTEN  =      -689.79159116 eV

  energy without entropy =     -689.79159116  energy(sigma->0) =     -689.79159116


--------------------------------------------------------------------------------------------------------




--------------------------------------- Iteration      1(   7)  ---------------------------------------


    POTLOK:  cpu time    0.0490: real time    0.0687
    SETDIJ:  cpu time    0.0104: real time    0.0105
    EDDIAG:  cpu time    3.9808: real time    3.9807
  RMM-DIIS:  cpu time   16.1712: real time   16.1704
    ORTHCH:  cpu time    0.5576: real time    0.5576
 BZINTS: Fermi energy:  3.131421;464.000000 electrons
         Band energy:***********;  BLOECHL correction:  0.000000
       DOS:  cpu time    0.0099: real time    0.0099
    CHARGE:  cpu time    0.9951: real time    0.9950
    MIXING:  cpu time    0.0012: real time    0.0012
    --------------------------------------------
      LOOP:  cpu time   21.7752: real time   21.7940

 eigenvalue-minimisations  : 24417
 total energy-change (2. order) : 0.9314202E+01  (-0.3263120E+01)
 number of electron     463.9999976 magnetization 
 augmentation part       45.2748385 magnetization 

 Broyden mixing:
  rms(total) = 0.22276E+01    rms(broyden)= 0.22275E+01
  rms(prec ) = 0.23229E+01
  weight for this iteration     100.00

 eigenvalues of (default mixing * dielectric matrix)
  average eigenvalue GAMMA=   1.1600
  0.8856  1.4343

 Free energy of the ion-electron system (eV)
  ---------------------------------------------------
  alpha Z        PSCENC =      1657.51521512
  Ewald energy   TEWEN  =    -26889.04147160
  -Hartree energ DENC   =    -10962.14407376
  -exchange      EXHF   =         0.00000000
  -V(xc)+E(xc)   XCENC  =      1514.20512571
  PAW double counting   =     42101.96063669   -41469.38481507
  entropy T*S    EENTRO =         0.00000000
  eigenvalues    EBANDS =     -3714.43423460
  atomic energy  EATOM  =     37080.84622879
  Solvation  Ediel_sol  =         0.00000000
  ---------------------------------------------------
  free energy    TOTEN  =      -680.47738872 eV

  energy without entropy =     -680.47738872  energy(sigma->0) =     -680.47738872


--------------------------------------------------------------------------------------------------------




--------------------------------------- Iteration      1(   8)  ---------------------------------------


    POTLOK:  cpu time    0.0465: real time    0.0673
    SETDIJ:  cpu time    0.0099: real time    0.0099
    EDDIAG:  cpu time    3.9801: real time    3.9799
  RMM-DIIS:  cpu time   16.3794: real time   16.3778
    ORTHCH:  cpu time    0.5572: real time    0.5571
 BZINTS: Fermi energy:  2.891496;464.000000 electrons
         Band energy:***********;  BLOECHL correction:  0.000000
       DOS:  cpu time    0.0084: real time    0.0084
    CHARGE:  cpu time    0.9932: real time    0.9930
    MIXING:  cpu time    0.0013: real time    0.0013
    --------------------------------------------
      LOOP:  cpu time   21.9760: real time   21.9947

 eigenvalue-minimisations  : 25358
 total energy-change (2. order) : 0.1659496E+00  (-0.1120783E+01)
 number of electron     463.9999975 magnetization 
 augmentation part       45.4543899 magnetization 

 Broyden mixing:
  rms(total) = 0.89760E+00    rms(broyden)= 0.89748E+00
  rms(prec ) = 0.94651E+00
  weight for this iteration     100.00

 eigenvalues of (default mixing * dielectric matrix)
  average eigenvalue GAMMA=   1.3579
  2.1296  0.9721  0.9721

 Free energy of the ion-electron system (eV)
  ---------------------------------------------------
  alpha Z        PSCENC =      1657.51521512
  Ewald energy   TEWEN  =    -26889.04147160
  -Hartree energ DENC   =    -10922.33404856
  -exchange      EXHF   =         0.00000000
  -V(xc)+E(xc)   XCENC  =      1511.66760944
  PAW double counting   =     44458.33808154   -43813.55456020
  entropy T*S    EENTRO =         0.00000000
  eigenvalues    EBANDS =     -3763.74849360
  atomic energy  EATOM  =     37080.84622879
  Solvation  Ediel_sol  =         0.00000000
  ---------------------------------------------------
  free energy    TOTEN  =      -680.31143907 eV

  energy without entropy =     -680.31143907  energy(sigma->0) =     -680.31143907


--------------------------------------------------------------------------------------------------------




--------------------------------------- Iteration      1(   9)  ---------------------------------------


    POTLOK:  cpu time    0.0517: real time    0.0673
    SETDIJ:  cpu time    0.0099: real time    0.0099
    EDDIAG:  cpu time    3.9929: real time    3.9927
  RMM-DIIS:  cpu time   18.2290: real time   18.2280
    ORTHCH:  cpu time    0.5582: real time    0.5582
 BZINTS: Fermi energy:  3.055521;464.000000 electrons
         Band energy:***********;  BLOECHL correction:  0.000000
       DOS:  cpu time    0.0100: real time    0.0100
    CHARGE:  cpu time    0.9903: real time    0.9902
    MIXING:  cpu time    0.0015: real time    0.0015
    --------------------------------------------
      LOOP:  cpu time   23.8435: real time   23.8578

 eigenvalue-minimisations  : 33020
 total energy-change (2. order) : 0.6852930E-01  (-0.1882748E+00)
 number of electron     463.9999976 magnetization 
 augmentation part       45.1499761 magnetization 

 Broyden mixing:
  rms(total) = 0.26552E+00    rms(broyden)= 0.26549E+00
  rms(prec ) = 0.29547E+00
  weight for this iteration     100.00

 eigenvalues of (default mixing * dielectric matrix)
  average eigenvalue GAMMA=   1.4660
  2.3378  1.6982  0.9140  0.9140

 Free energy of the ion-electron system (eV)
  ---------------------------------------------------
  alpha Z        PSCENC =      1657.51521512
  Ewald energy   TEWEN  =    -26889.04147160
  -Hartree energ DENC   =    -10957.71227841
  -exchange      EXHF   =         0.00000000
  -V(xc)+E(xc)   XCENC  =      1514.54391690
  PAW double counting   =     46323.31336504   -45667.77004965
  entropy T*S    EENTRO =         0.00000000
  eigenvalues    EBANDS =     -3741.93783597
  atomic energy  EATOM  =     37080.84622879
  Solvation  Ediel_sol  =         0.00000000
  ---------------------------------------------------
  free energy    TOTEN  =      -680.24290977 eV

  energy without entropy =     -680.24290977  energy(sigma->0) =     -680.24290977


--------------------------------------------------------------------------------------------------------




--------------------------------------- Iteration      1(  10)  ---------------------------------------


    POTLOK:  cpu time    0.0482: real time    0.0664
    SETDIJ:  cpu time    0.0104: real time    0.0105
    EDDIAG:  cpu time    3.9782: real time    3.9780
  RMM-DIIS:  cpu time   18.3316: real time   18.3304
    ORTHCH:  cpu time    0.5580: real time    0.5580
 BZINTS: Fermi energy:  3.064726;464.000000 electrons
         Band energy:***********;  BLOECHL correction:  0.000000
       DOS:  cpu time    0.0100: real time    0.0100
    CHARGE:  cpu time    0.9893: real time    0.9892
    MIXING:  cpu time    0.0013: real time    0.0013
    --------------------------------------------
      LOOP:  cpu time   23.9271: real time   23.9437

 eigenvalue-minimisations  : 32725
 total energy-change (2. order) :-0.3430902E-02  (-0.3897454E-01)
 number of electron     463.9999976 magnetization 
 augmentation part       44.9869959 magnetization 

 Broyden mixing:
  rms(total) = 0.57039E-01    rms(broyden)= 0.57006E-01
  rms(prec ) = 0.64947E-01
  weight for this iteration     100.00

 eigenvalues of (default mixing * dielectric matrix)
  average eigenvalue GAMMA=   1.4330
  2.6247  1.8955  0.9415  0.9415  0.7617

 Free energy of the ion-electron system (eV)
  ---------------------------------------------------
  alpha Z        PSCENC =      1657.51521512
  Ewald energy   TEWEN  =    -26889.04147160
  -Hartree energ DENC   =    -10987.25494566
  -exchange      EXHF   =         0.00000000
  -V(xc)+E(xc)   XCENC  =      1515.91464093
  PAW double counting   =     46416.27621549   -45753.81975433
  entropy T*S    EENTRO =         0.00000000
  eigenvalues    EBANDS =     -3720.68246942
  atomic energy  EATOM  =     37080.84622879
  Solvation  Ediel_sol  =         0.00000000
  ---------------------------------------------------
  free energy    TOTEN  =      -680.24634067 eV

  energy without entropy =     -680.24634067  energy(sigma->0) =     -680.24634067


--------------------------------------------------------------------------------------------------------




--------------------------------------- Iteration      1(  11)  ---------------------------------------


    POTLOK:  cpu time    0.0476: real time    0.0628
    SETDIJ:  cpu time    0.0098: real time    0.0098
    EDDIAG:  cpu time    3.9657: real time    3.9655
  RMM-DIIS:  cpu time   18.6017: real time   18.5994
    ORTHCH:  cpu time    0.5573: real time    0.5573
 BZINTS: Fermi energy:  3.049220;464.000000 electrons
         Band energy:***********;  BLOECHL correction:  0.000000
       DOS:  cpu time    0.0100: real time    0.0100
    CHARGE:  cpu time    0.9917: real time    0.9916
    MIXING:  cpu time    0.0014: real time    0.0014
    --------------------------------------------
      LOOP:  cpu time   24.1853: real time   24.1976

 eigenvalue-minimisations  : 34323
 total energy-change (2. order) :-0.1201175E-01  (-0.1204189E-01)
 number of electron     463.9999976 magnetization 
 augmentation part       44.9184696 magnetization 

 Broyden mixing:
  rms(total) = 0.32652E-01    rms(broyden)= 0.32639E-01
  rms(prec ) = 0.36684E-01
  weight for this iteration     100.00

 eigenvalues of (default mixing * dielectric matrix)
  average eigenvalue GAMMA=   1.5163
  3.1440  1.9998  1.2078  0.9186  0.9186  0.9094

 Free energy of the ion-electron system (eV)
  ---------------------------------------------------
  alpha Z        PSCENC =      1657.51521512
  Ewald energy   TEWEN  =    -26889.04147160
  -Hartree energ DENC   =    -10992.02810957
  -exchange      EXHF   =         0.00000000
  -V(xc)+E(xc)   XCENC  =      1516.12960264
  PAW double counting   =     46470.94438996   -45805.97753715
  entropy T*S    EENTRO =         0.00000000
  eigenvalues    EBANDS =     -3718.64667061
  atomic energy  EATOM  =     37080.84622879
  Solvation  Ediel_sol  =         0.00000000
  ---------------------------------------------------
  free energy    TOTEN  =      -680.25835242 eV

  energy without entropy =     -680.25835242  energy(sigma->0) =     -680.25835242


--------------------------------------------------------------------------------------------------------




--------------------------------------- Iteration      1(  12)  ---------------------------------------


    POTLOK:  cpu time    0.0503: real time    0.0609
    SETDIJ:  cpu time    0.0104: real time    0.0105
    EDDIAG:  cpu time    3.9516: real time    3.9511
  RMM-DIIS:  cpu time   18.6391: real time   18.6372
    ORTHCH:  cpu time    0.5562: real time    0.5561
 BZINTS: Fermi energy:  3.033867;464.000000 electrons
         Band energy:***********;  BLOECHL correction:  0.000000
       DOS:  cpu time    0.0099: real time    0.0099
    CHARGE:  cpu time    0.9897: real time    0.9895
    MIXING:  cpu time    0.0013: real time    0.0013
    --------------------------------------------
      LOOP:  cpu time   24.2085: real time   24.2166

 eigenvalue-minimisations  : 34241
 total energy-change (2. order) :-0.3387788E-02  (-0.4327530E-02)
 number of electron     463.9999976 magnetization 
 augmentation part       44.8740871 magnetization 

 Broyden mixing:
  rms(total) = 0.24590E-01    rms(broyden)= 0.24586E-01
  rms(prec ) = 0.26022E-01
  weight for this iteration     100.00

 eigenvalues of (default mixing * dielectric matrix)
  average eigenvalue GAMMA=   1.5771
  3.2645  2.3156  1.3772  1.3772  0.9470  0.9470  0.8111

 Free energy of the ion-electron system (eV)
  ---------------------------------------------------
  alpha Z        PSCENC =      1657.51521512
  Ewald energy   TEWEN  =    -26889.04147160
  -Hartree energ DENC   =    -10993.45411785
  -exchange      EXHF   =         0.00000000
  -V(xc)+E(xc)   XCENC  =      1516.20061607
  PAW double counting   =     46492.98551601   -45825.92917223
  entropy T*S    EENTRO =         0.00000000
  eigenvalues    EBANDS =     -3719.38455452
  atomic energy  EATOM  =     37080.84622879
  Solvation  Ediel_sol  =         0.00000000
  ---------------------------------------------------
  free energy    TOTEN  =      -680.26174021 eV

  energy without entropy =     -680.26174021  energy(sigma->0) =     -680.26174021


--------------------------------------------------------------------------------------------------------




--------------------------------------- Iteration      1(  13)  ---------------------------------------


    POTLOK:  cpu time    0.0455: real time    0.0588
    SETDIJ:  cpu time    0.0099: real time    0.0099
    EDDIAG:  cpu time    3.9543: real time    3.9539
  RMM-DIIS:  cpu time   19.3248: real time   19.3220
    ORTHCH:  cpu time    0.5565: real time    0.5564
 BZINTS: Fermi energy:  3.019833;464.000000 electrons
         Band energy:***********;  BLOECHL correction:  0.000000
       DOS:  cpu time    0.0100: real time    0.0100
    CHARGE:  cpu time    0.9897: real time    0.9895
    MIXING:  cpu time    0.0015: real time    0.0015
    --------------------------------------------
      LOOP:  cpu time   24.8921: real time   24.9019

 eigenvalue-minimisations  : 34551
 total energy-change (2. order) :-0.9590291E-03  (-0.1596862E-02)
 number of electron     463.9999976 magnetization 
 augmentation part       44.8620816 magnetization 

 Broyden mixing:
  rms(total) = 0.72281E-02    rms(broyden)= 0.72194E-02
  rms(prec ) = 0.86445E-02
  weight for this iteration     100.00

 eigenvalues of (default mixing * dielectric matrix)
  average eigenvalue GAMMA=   1.5705
  3.0163  2.5135  1.7148  1.7148  0.9149  0.9149  0.9473  0.8279

 Free energy of the ion-electron system (eV)
  ---------------------------------------------------
  alpha Z        PSCENC =      1657.51521512
  Ewald energy   TEWEN  =    -26889.04147160
  -Hartree energ DENC   =    -10993.14377344
  -exchange      EXHF   =         0.00000000
  -V(xc)+E(xc)   XCENC  =      1516.13491277
  PAW double counting   =     46493.20483022   -45824.61662977
  entropy T*S    EENTRO =         0.00000000
  eigenvalues    EBANDS =     -3721.16201132
  atomic energy  EATOM  =     37080.84622879
  Solvation  Ediel_sol  =         0.00000000
  ---------------------------------------------------
  free energy    TOTEN  =      -680.26269924 eV

  energy without entropy =     -680.26269924  energy(sigma->0) =     -680.26269924


--------------------------------------------------------------------------------------------------------




--------------------------------------- Iteration      1(  14)  ---------------------------------------


    POTLOK:  cpu time    0.0526: real time    0.0716
    SETDIJ:  cpu time    0.0100: real time    0.0100
    EDDIAG:  cpu time    3.9629: real time    3.9625
  RMM-DIIS:  cpu time   18.6696: real time   18.6682
    ORTHCH:  cpu time    0.5574: real time    0.5573
 BZINTS: Fermi energy:  3.006319;464.000000 electrons
         Band energy:***********;  BLOECHL correction:  0.000000
       DOS:  cpu time    0.0100: real time    0.0100
    CHARGE:  cpu time    0.9899: real time    0.9897
    MIXING:  cpu time    0.0015: real time    0.0015
    --------------------------------------------
      LOOP:  cpu time   24.2539: real time   24.2708

 eigenvalue-minimisations  : 34347
 total energy-change (2. order) :-0.5737669E-03  (-0.6993310E-03)
 number of electron     463.9999976 magnetization 
 augmentation part       44.8410164 magnetization 

 Broyden mixing:
  rms(total) = 0.71604E-02    rms(broyden)= 0.71573E-02
  rms(prec ) = 0.82805E-02
  weight for this iteration     100.00

 eigenvalues of (default mixing * dielectric matrix)
  average eigenvalue GAMMA=   1.5105
  3.4257  2.5213  1.7904  1.7904  0.9174  0.9174  0.8954  0.8155  0.5206

 Free energy of the ion-electron system (eV)
  ---------------------------------------------------
  alpha Z        PSCENC =      1657.51521512
  Ewald energy   TEWEN  =    -26889.04147160
  -Hartree energ DENC   =    -10993.60132850
  -exchange      EXHF   =         0.00000000
  -V(xc)+E(xc)   XCENC  =      1516.17172439
  PAW double counting   =     46497.96794036   -45829.16819478
  entropy T*S    EENTRO =         0.00000000
  eigenvalues    EBANDS =     -3720.95338679
  atomic energy  EATOM  =     37080.84622879
  Solvation  Ediel_sol  =         0.00000000
  ---------------------------------------------------
  free energy    TOTEN  =      -680.26327301 eV

  energy without entropy =     -680.26327301  energy(sigma->0) =     -680.26327301


--------------------------------------------------------------------------------------------------------




--------------------------------------- Iteration      1(  15)  ---------------------------------------


    POTLOK:  cpu time    0.0486: real time    0.0672
    SETDIJ:  cpu time    0.0102: real time    0.0103
    EDDIAG:  cpu time    3.9607: real time    3.9602
WARNING in EDDRMM: call to ZHEGV failed, returncode =   6  3      2
WARNING in EDDRMM: call to ZHEGV failed, returncode =   6  3      3
WARNING in EDDRMM: call to ZHEGV failed, returncode =   8  4      2
  RMM-DIIS:  cpu time   19.2975: real time   19.2948
    ORTHCH:  cpu time    0.5560: real time    0.5559
 BZINTS: Fermi energy:  2.994020;464.000000 electrons
         Band energy:***********;  BLOECHL correction:  0.000000
       DOS:  cpu time    0.0100: real time    0.0099
    CHARGE:  cpu time    0.9884: real time    0.9883
    MIXING:  cpu time    0.0015: real time    0.0015
    --------------------------------------------
      LOOP:  cpu time   24.8730: real time   24.8882

 eigenvalue-minimisations  : 34758
 total energy-change (2. order) :-0.1811124E-03  (-0.2136133E-03)
 number of electron     463.9999976 magnetization 
 augmentation part       44.8335952 magnetization 

 Broyden mixing:
  rms(total) = 0.48363E-02    rms(broyden)= 0.48350E-02
  rms(prec ) = 0.55003E-02
  weight for this iteration     100.00

 eigenvalues of (default mixing * dielectric matrix)
  average eigenvalue GAMMA=   1.6179
  4.4940  2.5690  2.0288  1.7328  0.9469  0.9469  0.9376  0.9376  0.8123  0.7736

 Free energy of the ion-electron system (eV)
  ---------------------------------------------------
  alpha Z        PSCENC =      1657.51521512
  Ewald energy   TEWEN  =    -26889.04147160
  -Hartree energ DENC   =    -10993.98941578
  -exchange      EXHF   =         0.00000000
  -V(xc)+E(xc)   XCENC  =      1516.18349919
  PAW double counting   =     46501.86178978   -45832.72126562
  entropy T*S    EENTRO =         0.00000000
  eigenvalues    EBANDS =     -3720.91803401
  atomic energy  EATOM  =     37080.84622879
  Solvation  Ediel_sol  =         0.00000000
  ---------------------------------------------------
  free energy    TOTEN  =      -680.26345412 eV

  energy without entropy =     -680.26345412  energy(sigma->0) =     -680.26345412


--------------------------------------------------------------------------------------------------------




--------------------------------------- Iteration      1(  16)  ---------------------------------------


    POTLOK:  cpu time    0.0481: real time    0.0665
    SETDIJ:  cpu time    0.0099: real time    0.0099
    EDDIAG:  cpu time    3.9514: real time    3.9511
  RMM-DIIS:  cpu time   19.4012: real time   19.3981
    ORTHCH:  cpu time    0.5548: real time    0.5548
 BZINTS: Fermi energy:  2.981712;464.000000 electrons
         Band energy:***********;  BLOECHL correction:  0.000000
       DOS:  cpu time    0.0100: real time    0.0100
    CHARGE:  cpu time    0.9877: real time    0.9876
    MIXING:  cpu time    0.0015: real time    0.0015
    --------------------------------------------
      LOOP:  cpu time   24.9646: real time   24.9794

 eigenvalue-minimisations  : 35099
 total energy-change (2. order) :-0.8283539E-04  (-0.8416309E-04)
 number of electron     463.9999976 magnetization 
 augmentation part       44.8296274 magnetization 

 Broyden mixing:
  rms(total) = 0.18405E-02    rms(broyden)= 0.18392E-02
  rms(prec ) = 0.22137E-02
  weight for this iteration     100.00

 eigenvalues of (default mixing * dielectric matrix)
  average eigenvalue GAMMA=   1.5570
  3.6451  2.8093  2.3142  1.5747  1.5747  0.9834  0.9389  0.9389  0.8420  0.8420
  0.6637

 Free energy of the ion-electron system (eV)
  ---------------------------------------------------
  alpha Z        PSCENC =      1657.51521512
  Ewald energy   TEWEN  =    -26889.04147160
  -Hartree energ DENC   =    -10994.44830980
  -exchange      EXHF   =         0.00000000
  -V(xc)+E(xc)   XCENC  =      1516.19705481
  PAW double counting   =     46511.00903828   -45841.33061706
  entropy T*S    EENTRO =         0.00000000
  eigenvalues    EBANDS =     -3721.01067550
  atomic energy  EATOM  =     37080.84622879
  Solvation  Ediel_sol  =         0.00000000
  ---------------------------------------------------
  free energy    TOTEN  =      -680.26353696 eV

  energy without entropy =     -680.26353696  energy(sigma->0) =     -680.26353696


--------------------------------------------------------------------------------------------------------




--------------------------------------- Iteration      1(  17)  ---------------------------------------


    POTLOK:  cpu time    0.0491: real time    0.0610
    SETDIJ:  cpu time    0.0103: real time    0.0104
    EDDIAG:  cpu time    3.9627: real time    3.9623
  RMM-DIIS:  cpu time   19.2378: real time   19.2348
    ORTHCH:  cpu time    0.5574: real time    0.5573
 BZINTS: Fermi energy:  2.969433;464.000000 electrons
         Band energy:***********;  BLOECHL correction:  0.000000
       DOS:  cpu time    0.0099: real time    0.0099
    CHARGE:  cpu time    0.9876: real time    0.9875
    MIXING:  cpu time    0.0016: real time    0.0016
    --------------------------------------------
      LOOP:  cpu time   24.8165: real time   24.8249

 eigenvalue-minimisations  : 34288
 total energy-change (2. order) :-0.3223580E-04  (-0.4110912E-04)
 number of electron     463.9999976 magnetization 
 augmentation part       44.8249567 magnetization 

 Broyden mixing:
  rms(total) = 0.26385E-02    rms(broyden)= 0.26380E-02
  rms(prec ) = 0.30263E-02
  weight for this iteration     100.00

 eigenvalues of (default mixing * dielectric matrix)
  average eigenvalue GAMMA=   1.5394
  4.2775  2.8332  2.3020  1.6646  1.6646  1.0556  0.9251  0.9251  0.8452  0.8452
  0.5671  0.5671

 Free energy of the ion-electron system (eV)
  ---------------------------------------------------
  alpha Z        PSCENC =      1657.51521512
  Ewald energy   TEWEN  =    -26889.04147160
  -Hartree energ DENC   =    -10994.15869780
  -exchange      EXHF   =         0.00000000
  -V(xc)+E(xc)   XCENC  =      1516.18892217
  PAW double counting   =     46509.92257750   -45840.41804626
  entropy T*S    EENTRO =         0.00000000
  eigenvalues    EBANDS =     -3721.11829711
  atomic energy  EATOM  =     37080.84622879
  Solvation  Ediel_sol  =         0.00000000
  ---------------------------------------------------
  free energy    TOTEN  =      -680.26356919 eV

  energy without entropy =     -680.26356919  energy(sigma->0) =     -680.26356919


--------------------------------------------------------------------------------------------------------




--------------------------------------- Iteration      1(  18)  ---------------------------------------


    POTLOK:  cpu time    0.0462: real time    0.0578
    SETDIJ:  cpu time    0.0099: real time    0.0099
    EDDIAG:  cpu time    3.9579: real time    3.9573
WARNING in EDDRMM: call to ZHEGV failed, returncode =   8  4      3
  RMM-DIIS:  cpu time   19.0463: real time   19.0435
    ORTHCH:  cpu time    0.5581: real time    0.5581
 BZINTS: Fermi energy:  2.957710;464.000000 electrons
         Band energy:***********;  BLOECHL correction:  0.000000
       DOS:  cpu time    0.0101: real time    0.0101
    CHARGE:  cpu time    0.9907: real time    0.9905
    MIXING:  cpu time    0.0018: real time    0.0018
    --------------------------------------------
      LOOP:  cpu time   24.6209: real time   24.6291

 eigenvalue-minimisations  : 33201
 total energy-change (2. order) :-0.1134958E-04  (-0.1116363E-04)
 number of electron     463.9999976 magnetization 
 augmentation part       44.8234374 magnetization 

 Broyden mixing:
  rms(total) = 0.93104E-03    rms(broyden)= 0.93074E-03
[...]
 augmentation part       44.8203055 magnetization 

  free energy =  -0.680290880793E+03  energy without entropy=  -0.680290880793E+03


--------------------------------------------------------------------------------------------------------




------------------------ aborting loop because EDIFF is reached ----------------------------------------


    CHARGE:  cpu time    0.9748: real time    0.9746
    FORLOC:  cpu time    0.0159: real time    0.0159
    FORNL :  cpu time    7.4952: real time    7.4942
    STRESS:  cpu time   22.3915: real time   22.3886
    FORCOR:  cpu time    0.0496: real time    0.0496
    FORHAR:  cpu time    0.0228: real time    0.0228
    MIXING:  cpu time    0.0010: real time    0.0010
    OFIELD:  cpu time    0.0000: real time    0.0000

  FORCE on cell =-STRESS in cart. coord.  units (eV):
  Direction    XX          YY          ZZ          XY          YZ          ZX
  --------------------------------------------------------------------------------------
  Alpha Z  1657.51522  1657.51522  1657.51522
  Ewald   -8916.62835 -8845.66627 -9177.99996    47.69250   -36.90189    93.21925
  Hartree  3595.85761  3664.39141  3681.52005    41.26235   -35.15091    84.74899
  E(xc)   -2188.95895 -2188.98762 -2186.48848     0.07674    -0.01615     0.00028
  Local   -2612.06198 -2751.46261 -2447.29124   -89.19921    72.08298  -178.11925
  n-local -1206.30006 -1206.10669 -1196.14712    -0.51174     0.05085    -0.18839
  augment   515.21595   515.17980   511.74394     0.07465    -0.00827     0.01698
  Kinetic  9161.57988  9161.35882  9163.32834     0.60431    -0.05549     0.32155
  Fock        0.00000     0.00000     0.00000     0.00000     0.00000     0.00000
  -------------------------------------------------------------------------------------
  Total       6.21932     6.22205     6.18076    -0.00040     0.00112    -0.00058
  in kB      12.00273    12.00800    11.92832    -0.00078     0.00215    -0.00112
  external pressure =       11.98 kB  Pullay stress =        0.00 kB



--------------------------------------------------------------------------------------------------------



  FREE ENERGIE OF THE ION-ELECTRON SYSTEM (eV)
  ---------------------------------------------------
  free  energy   TOTEN  =      -680.29088079 eV

  energy  without entropy=     -680.29088079  energy(sigma->0) =     -680.29088079
 
 d Force = 0.6584986E-04[ 0.485E-04, 0.832E-04]  d Energy = 0.6834326E-04-0.249E-05
 d Force =-0.8974986E+00[-0.898E+00,-0.897E+00]  d Ewald  =-0.8931671E+00-0.433E-02


--------------------------------------------------------------------------------------------------------


    POTLOK:  cpu time    0.0552: real time    0.0552


--------------------------------------------------------------------------------------------------------


 Quasi-Newton relaxation of ions (Broydens 2nd method)
  g(Force)  = 0.594E-05   g(Stress)= 0.194E-06

 retain information from N=  1 steps
 eigenvalues of (default step * inverse Hessian matrix)
  average eigenvalue of G=   7.9495
 eigenvalue spectrum of G is  7.9495


--------------------------------------------------------------------------------------------------------


    WAVPRE:  cpu time    0.0235: real time    0.0266
    FEWALD:  cpu time    0.0020: real time    0.0020
    GENKIN:  cpu time    0.2010: real time    0.2010
    ORTHCH:  cpu time    2.9600: real time    2.9596
     LOOP+:  cpu time  125.7362: real time  125.7829


--------------------------------------- Iteration     14(   1)  ---------------------------------------


    POTLOK:  cpu time    0.0584: real time    0.0644
    SETDIJ:  cpu time    0.0102: real time    0.0102
     EDDAV:  cpu time   35.4787: real time   35.4751
 BZINTS: Fermi energy:  2.976243;464.000000 electrons
         Band energy:***********;  BLOECHL correction:  0.000000
       DOS:  cpu time    0.0100: real time    0.0100
    CHARGE:  cpu time    0.9762: real time    0.9761
    MIXING:  cpu time    0.0009: real time    0.0009
    --------------------------------------------
      LOOP:  cpu time   36.5345: real time   36.5367

 eigenvalue-minimisations  : 28512
 total energy-change (2. order) :-0.1665801E-04  (-0.6220162E-03)
 number of electron     464.0000029 magnetization 
 augmentation part       44.8204295 magnetization 

  free energy =  -0.680290898096E+03  energy without entropy=  -0.680290898096E+03


--------------------------------------------------------------------------------------------------------




--------------------------------------- Iteration     14(   2)  ---------------------------------------


    POTLOK:  cpu time    0.0468: real time    0.0586
    SETDIJ:  cpu time    0.0100: real time    0.0099
    EDDIAG:  cpu time    3.9703: real time    3.9699
  RMM-DIIS:  cpu time   11.9813: real time   11.9804
    ORTHCH:  cpu time    0.5527: real time    0.5526
 BZINTS: Fermi energy:  2.976231;464.000000 electrons
         Band energy:***********;  BLOECHL correction:  0.000000
       DOS:  cpu time    0.0100: real time    0.0100
    CHARGE:  cpu time    0.9747: real time    0.9746
    MIXING:  cpu time    0.0010: real time    0.0010
    --------------------------------------------
      LOOP:  cpu time   17.5467: real time   17.5570

 eigenvalue-minimisations  : 21691
 total energy-change (2. order) :-0.1264156E-04  (-0.1422821E-04)
 number of electron     464.0000029 magnetization 
 augmentation part       44.8203449 magnetization 

 eigenvalues of (default mixing * dielectric matrix)
  average eigenvalue GAMMA=   1.0163
  1.0163

  free energy =  -0.680290910737E+03  energy without entropy=  -0.680290910737E+03


--------------------------------------------------------------------------------------------------------




--------------------------------------- Iteration     14(   3)  ---------------------------------------


    POTLOK:  cpu time    0.0453: real time    0.0635
    SETDIJ:  cpu time    0.0102: real time    0.0103
    EDDIAG:  cpu time    3.9430: real time    3.9425
  RMM-DIIS:  cpu time   11.9414: real time   11.9404
    ORTHCH:  cpu time    0.5532: real time    0.5532
 BZINTS: Fermi energy:  2.976244;464.000000 electrons
         Band energy:***********;  BLOECHL correction:  0.000000
       DOS:  cpu time    0.0100: real time    0.0100
    CHARGE:  cpu time    0.9734: real time    0.9733
    MIXING:  cpu time    0.0011: real time    0.0011
    --------------------------------------------
      LOOP:  cpu time   17.4777: real time   17.4944

 eigenvalue-minimisations  : 19097
 total energy-change (2. order) : 0.1072083E-05  (-0.7607317E-06)
 number of electron     464.0000029 magnetization 
 augmentation part       44.8202472 magnetization 

 eigenvalues of (default mixing * dielectric matrix)
  average eigenvalue GAMMA=   1.5504
  1.0998  2.0011

  free energy =  -0.680290909665E+03  energy without entropy=  -0.680290909665E+03


--------------------------------------------------------------------------------------------------------




--------------------------------------- Iteration     14(   4)  ---------------------------------------


    POTLOK:  cpu time    0.0467: real time    0.0580
    SETDIJ:  cpu time    0.0104: real time    0.0105
    EDDIAG:  cpu time    3.9437: real time    3.9434
  RMM-DIIS:  cpu time   10.1607: real time   10.1601
    ORTHCH:  cpu time    0.5525: real time    0.5524
 BZINTS: Fermi energy:  2.976262;464.000000 electrons
         Band energy:***********;  BLOECHL correction:  0.000000
       DOS:  cpu time    0.0099: real time    0.0099
    --------------------------------------------
      LOOP:  cpu time   14.7240: real time   14.7344

 eigenvalue-minimisations  : 13650
 total energy-change (2. order) : 0.1368171E-06  (-0.2656492E-06)
 number of electron     464.0000029 magnetization 
 augmentation part       44.8202472 magnetization 

  free energy =  -0.680290909528E+03  energy without entropy=  -0.680290909528E+03


--------------------------------------------------------------------------------------------------------




------------------------ aborting loop because EDIFF is reached ----------------------------------------


    CHARGE:  cpu time    0.9733: real time    0.9732
    FORLOC:  cpu time    0.0160: real time    0.0160
    FORNL :  cpu time    7.4786: real time    7.4777
    STRESS:  cpu time   22.3994: real time   22.3971
    FORCOR:  cpu time    0.0495: real time    0.0495
    FORHAR:  cpu time    0.0227: real time    0.0227
    MIXING:  cpu time    0.0010: real time    0.0010
    OFIELD:  cpu time    0.0000: real time    0.0000

  FORCE on cell =-STRESS in cart. coord.  units (eV):
  Direction    XX          YY          ZZ          XY          YZ          ZX
  --------------------------------------------------------------------------------------
  Alpha Z  1657.51522  1657.51522  1657.51522
  Ewald   -8916.65939 -8845.71312 -9177.39749    47.69195   -36.90492    93.20655
  Hartree  3595.98335  3664.50870  3681.79176    41.26251   -35.14989    84.73928
  E(xc)   -2188.96479 -2188.99344 -2186.49767     0.07672    -0.01608     0.00007
  Local   -2612.15811 -2751.53435 -2448.12908   -89.19861    72.08489  -178.09633
  n-local -1206.30185 -1206.10653 -1196.14664    -0.51164     0.05153    -0.18698
  augment   515.21343   515.17711   511.74251     0.07458    -0.00831     0.01686
  Kinetic  9161.62413  9161.40117  9163.34834     0.60380    -0.05584     0.32065
  Fock        0.00000     0.00000     0.00000     0.00000     0.00000     0.00000
  -------------------------------------------------------------------------------------
  Total       6.25198     6.25476     6.22694    -0.00070     0.00137     0.00009
  in kB      12.06577    12.07114    12.01744    -0.00135     0.00265     0.00018
  external pressure =       12.05 kB  Pullay stress =        0.00 kB



--------------------------------------------------------------------------------------------------------



  FREE ENERGIE OF THE ION-ELECTRON SYSTEM (eV)
  ---------------------------------------------------
  free  energy   TOTEN  =      -680.29090953 eV

  energy  without entropy=     -680.29090953  energy(sigma->0) =     -680.29090953
 
 d Force = 0.2600515E-04[ 0.214E-04, 0.306E-04]  d Energy = 0.2873484E-04-0.273E-05
 d Force =-0.5280441E+00[-0.528E+00,-0.528E+00]  d Ewald  =-0.5246342E+00-0.341E-02


--------------------------------------------------------------------------------------------------------


    POTLOK:  cpu time    0.0551: real time    0.0551


--------------------------------------------------------------------------------------------------------


 Quasi-Newton relaxation of ions (Broydens 2nd method)
  g(Force)  = 0.377E-05   g(Stress)= 0.858E-07

 retain information from N=  1 steps
 eigenvalues of (default step * inverse Hessian matrix)
  average eigenvalue of G=   7.6624
 eigenvalue spectrum of G is  7.6624


--------------------------------------------------------------------------------------------------------


    WAVPRE:  cpu time    0.0235: real time    0.0261
    FEWALD:  cpu time    0.0021: real time    0.0021
    GENKIN:  cpu time    0.2013: real time    0.2013
    ORTHCH:  cpu time    2.9565: real time    2.9561
     LOOP+:  cpu time  120.5355: real time  120.5902


--------------------------------------- Iteration     15(   1)  ---------------------------------------


    POTLOK:  cpu time    0.0608: real time    0.0654
    SETDIJ:  cpu time    0.0106: real time    0.0106
     EDDAV:  cpu time   35.3457: real time   35.3414
 BZINTS: Fermi energy:  2.976374;464.000000 electrons
         Band energy:***********;  BLOECHL correction:  0.000000
       DOS:  cpu time    0.0100: real time    0.0100
    CHARGE:  cpu time    0.9719: real time    0.9718
    MIXING:  cpu time    0.0009: real time    0.0009
    --------------------------------------------
      LOOP:  cpu time   36.3999: real time   36.4002

 eigenvalue-minimisations  : 28368
 total energy-change (2. order) :-0.9716205E-05  (-0.6092609E-03)
 number of electron     464.0000029 magnetization 
 augmentation part       44.8204475 magnetization 

  free energy =  -0.680290919381E+03  energy without entropy=  -0.680290919381E+03


--------------------------------------------------------------------------------------------------------




--------------------------------------- Iteration     15(   2)  ---------------------------------------


    POTLOK:  cpu time    0.0469: real time    0.0611
    SETDIJ:  cpu time    0.0100: real time    0.0100
    EDDIAG:  cpu time    3.9486: real time    3.9481
  RMM-DIIS:  cpu time   12.5446: real time   12.5437
    ORTHCH:  cpu time    0.5521: real time    0.5520
 BZINTS: Fermi energy:  2.976424;464.000000 electrons
         Band energy:***********;  BLOECHL correction:  0.000000
       DOS:  cpu time    0.0099: real time    0.0099
    CHARGE:  cpu time    0.9703: real time    0.9701
    MIXING:  cpu time    0.0011: real time    0.0011
    --------------------------------------------
      LOOP:  cpu time   18.0835: real time   18.0960

 eigenvalue-minimisations  : 22001
 total energy-change (2. order) :-0.1176591E-04  (-0.1338138E-04)
 number of electron     464.0000029 magnetization 
 augmentation part       44.8203704 magnetization 

 eigenvalues of (default mixing * dielectric matrix)
  average eigenvalue GAMMA=   1.0073
  1.0073

  free energy =  -0.680290931147E+03  energy without entropy=  -0.680290931147E+03


--------------------------------------------------------------------------------------------------------




--------------------------------------- Iteration     15(   3)  ---------------------------------------


    POTLOK:  cpu time    0.0453: real time    0.0564
    SETDIJ:  cpu time    0.0103: real time    0.0104
    EDDIAG:  cpu time    3.9380: real time    3.9375
  RMM-DIIS:  cpu time   11.1137: real time   11.1129
    ORTHCH:  cpu time    0.5524: real time    0.5524
 BZINTS: Fermi energy:  2.976448;464.000000 electrons
         Band energy:***********;  BLOECHL correction:  0.000000
       DOS:  cpu time    0.0100: real time    0.0100
    CHARGE:  cpu time    0.9749: real time    0.9748
    MIXING:  cpu time    0.0011: real time    0.0011
    --------------------------------------------
      LOOP:  cpu time   16.6458: real time   16.6554

 eigenvalue-minimisations  : 17806
 total energy-change (2. order) : 0.1368753E-05  (-0.6471000E-06)
 number of electron     464.0000029 magnetization 
 augmentation part       44.8202599 magnetization 

 eigenvalues of (default mixing * dielectric matrix)
  average eigenvalue GAMMA=   1.4312
  1.1529  1.7094

  free energy =  -0.680290929778E+03  energy without entropy=  -0.680290929778E+03


--------------------------------------------------------------------------------------------------------




--------------------------------------- Iteration     15(   4)  ---------------------------------------


    POTLOK:  cpu time    0.0462: real time    0.0576
    SETDIJ:  cpu time    0.0098: real time    0.0098
    EDDIAG:  cpu time    3.9399: real time    3.9394
  RMM-DIIS:  cpu time    8.8437: real time    8.8427
    ORTHCH:  cpu time    0.5528: real time    0.5527
 BZINTS: Fermi energy:  2.976467;464.000000 electrons
         Band energy:***********;  BLOECHL correction:  0.000000
       DOS:  cpu time    0.0099: real time    0.0099
    --------------------------------------------
      LOOP:  cpu time   13.4023: real time   13.4121

 eigenvalue-minimisations  : 12711
 total energy-change (2. order) : 0.1795343E-06  (-0.2393454E-06)
 number of electron     464.0000029 magnetization 
 augmentation part       44.8202599 magnetization 

  free energy =  -0.680290929599E+03  energy without entropy=  -0.680290929599E+03


--------------------------------------------------------------------------------------------------------




------------------------ aborting loop because EDIFF is reached ----------------------------------------


    CHARGE:  cpu time    0.9729: real time    0.9728
    FORLOC:  cpu time    0.0159: real time    0.0159
    FORNL :  cpu time    7.5010: real time    7.4999
    STRESS:  cpu time   22.3780: real time   22.3750
    FORCOR:  cpu time    0.0495: real time    0.0495
    FORHAR:  cpu time    0.0227: real time    0.0227
    MIXING:  cpu time    0.0010: real time    0.0010
    OFIELD:  cpu time    0.0000: real time    0.0000

  FORCE on cell =-STRESS in cart. coord.  units (eV):
  Direction    XX          YY          ZZ          XY          YZ          ZX
  --------------------------------------------------------------------------------------
  Alpha Z  1657.51522  1657.51522  1657.51522
  Ewald   -8916.65285 -8845.71907 -9176.90638    47.70221   -36.90805    93.19324
  Hartree  3596.11392  3664.63320  3682.01569    41.27078   -35.14785    84.72969
  E(xc)   -2188.97103 -2188.99942 -2186.50657     0.07677    -0.01602    -0.00005
  Local   -2612.29651 -2751.65453 -2448.80886   -89.21714    72.08605  -178.07316
  n-local -1206.30787 -1206.11278 -1196.14462    -0.51261     0.05190    -0.18746
  augment   515.21135   515.17493   511.74051     0.07460    -0.00837     0.01675
  Kinetic  9161.66888  9161.44437  9163.36814     0.60412    -0.05661     0.31972
  Fock        0.00000     0.00000     0.00000     0.00000     0.00000     0.00000
  -------------------------------------------------------------------------------------
  Total       6.28110     6.28192     6.27312    -0.00127     0.00103    -0.00129
  in kB      12.12197    12.12355    12.10657    -0.00246     0.00200    -0.00249
  external pressure =       12.12 kB  Pullay stress =        0.00 kB



--------------------------------------------------------------------------------------------------------



  FREE ENERGIE OF THE ION-ELECTRON SYSTEM (eV)
  ---------------------------------------------------
  free  energy   TOTEN  =      -680.29092960 eV

  energy  without entropy=     -680.29092960  energy(sigma->0) =     -680.29092960
 
 d Force = 0.1941490E-04[ 0.149E-04, 0.240E-04]  d Energy = 0.2007064E-04-0.656E-06
 d Force =-0.4955181E+00[-0.496E+00,-0.495E+00]  d Ewald  =-0.4917136E+00-0.380E-02


--------------------------------------------------------------------------------------------------------


    POTLOK:  cpu time    0.0554: real time    0.0554


--------------------------------------------------------------------------------------------------------


 Quasi-Newton relaxation of ions (Broydens 2nd method)
  g(Force)  = 0.264E-05   g(Stress)= 0.101E-07

 retain information from N=  1 steps
 eigenvalues of (default step * inverse Hessian matrix)
  average eigenvalue of G=   6.3016
 eigenvalue spectrum of G is  6.3016


--------------------------------------------------------------------------------------------------------


  
 reached required accuracy - stopping structural energy minimisation
     LOOP+:  cpu time  115.5956: real time  115.6458
    4ORBIT:  cpu time    0.0000: real time    0.0000

 total amount of memory used by VASP MPI-rank0   178254. kBytes
=======================================================================

   base      :      30000. kBytes
   nonlr-proj:      69324. kBytes
   fftplans  :       4575. kBytes
   grid      :      26165. kBytes
   one-center:       1244. kBytes
   wavefun   :      46946. kBytes
 
  
  
 General timing and accounting informations for this job:
 ========================================================
  
                  Total CPU time used (sec):     2784.260
                            User time (sec):     2715.915
                          System time (sec):       68.345
                         Elapsed time (sec):     2786.742
  
                   Maximum memory used (kb):      406100.
                   Average memory used (kb):           0.
  
                          Minor page faults:     17508229
                          Major page faults:            0
                 Voluntary context switches:        34089
