<?xml version="1.0" encoding="ISO-8859-1"?>
<modeling>
 <generator>
  <i name="program" type="string">vasp </i>
  <i name="version" type="string">5.4.4.18Apr17-6-g9f103f2a35  </i>
  <i name="subversion" type="string">(build Mar 05 2020 17:21:05) complex            parallel </i>
  <i name="platform" type="string">Linux justhpc1_p2018-05-16 </i>
  <i name="date" type="string">2024 04 10 </i>
  <i name="time" type="string">19:48:32 </i>
 </generator>
 <incar>
  <i type="string" name="SYSTEM"> Li(NbTa)O_3</i>
  <i type="int" name="ISTART">     0</i>
  <i type="string" name="PREC">accurate</i>
  <i type="string" name="ALGO">  Fast</i>
  <i name="AMIX">      0.40000000</i>
  <i name="AMIN">      0.10000000</i>
  <i type="int" name="ICHARG">     2</i>
  <i type="int" name="INIWAV">     1</i>
  <i type="int" name="NELM">  1000</i>
  <i type="int" name="NELMIN">     4</i>
  <i type="int" name="IBRION">     1</i>
  <i name="EDIFF">      0.00000100</i>
  <i name="EDIFFG">     -0.00500000</i>
  <i type="int" name="NSW">   200</i>
  <i type="int" name="ISIF">     4</i>
  <i name="ENCUT">    475.00000000</i>
  <i name="POTIM">      0.15000000</i>
  <i type="string" name="LREAL">    A</i>
  <i type="int" name="ISMEAR">    -5</i>
  <i name="SIGMA">      0.05000000</i>
  <i type="int" name="NWRITE">     0</i>
  <i type="logical" name="LWAVE"> F  </i>
  <i type="logical" name="LCHARG"> F  </i>
  <i type="logical" name="LVTOT"> F  </i>
  <i type="logical" name="LVHAR"> F  </i>
  <i type="logical" name="LELF"> F  </i>
  <v type="int" name="KPOINT_BSE">    -1     0     0     0</v>
  <i type="int" name="NELM">  1000</i>
  <i type="string" name="GGA"> PS</i>
 </incar>
 <structure name="primitive_cell" >
  <crystal>
   <varray name="basis" >
    <v>       5.11640507      -2.95237278       9.16070117 </v>
    <v>       0.00245651       5.90632203       9.15984421 </v>
    <v>      -5.11381539      -2.95371415       9.15882963 </v>
   </varray>
   <i name="volume">    830.18175776 </i>
   <varray name="rec_basis" >
    <v>       0.09775035      -0.05645059       0.03637346 </v>
    <v>      -0.00002146       0.11287458       0.03638997 </v>
    <v>      -0.09774887      -0.05642496       0.03640936 </v>
   </varray>
  </crystal>
  <varray name="positions" >
   <v>       0.13834752       0.13936271       0.13984335 </v>
   <v>       0.30515946       0.11079423      -0.06809337 </v>
   <v>       0.11018018      -0.06879723       0.30647725 </v>
   <v>      -0.06905013       0.30643726       0.10970186 </v>
   <v>       0.05623360       0.18120304       0.36059596 </v>
   <v>       0.18067803       0.36043515       0.05635112 </v>
   <v>       0.36055215       0.05618073       0.18135900 </v>
   <v>       0.24862253       0.24992729       0.24762435 </v>
   <v>      -0.00061676       0.00003493       0.49763958 </v>
   <v>      -0.00250010       0.49794372       0.00086033 </v>
   <v>       0.49988249      -0.00261528       0.00090131 </v>
   <v>      -0.19337261       0.10979363       0.43135599 </v>
   <v>       0.43096027      -0.19329050       0.10983535 </v>
   <v>       0.11066152       0.43074915      -0.19460356 </v>
   <v>       0.25168038       0.24891337      -0.25040483 </v>
   <v>      -0.25269028       0.24776208       0.24918815 </v>
   <v>       0.24806756      -0.25193469       0.24849505 </v>
   <v>      -0.13900432       0.05588109       0.18065345 </v>
   <v>       0.18040413      -0.13909628       0.05629587 </v>
   <v>       0.05540035       0.18155956      -0.13965962 </v>
   <v>      -0.10895576       0.39188824      -0.11006009 </v>
   <v>       0.39066873      -0.10877522      -0.10982588 </v>
   <v>      -0.11047756      -0.10980384       0.39154151 </v>
   <v>       0.38998511      -0.10977024       0.39046082 </v>
   <v>      -0.10918121       0.39199278       0.39127564 </v>
   <v>       0.39173469       0.39088444      -0.10940012 </v>
   <v>      -0.00040763       0.00150112      -0.00324828 </v>
   <v>      -0.13992542      -0.44365171       0.18046819 </v>
   <v>       0.18050111      -0.13926661      -0.44374241 </v>
   <v>      -0.44374507       0.18016866      -0.13917796 </v>
   <v>       0.10933811       0.43208088       0.30572184 </v>
   <v>       0.30616879       0.11038237       0.43144631 </v>
   <v>       0.43164615       0.30579781       0.11007695 </v>
   <v>      -0.06861027      -0.19460936      -0.38915746 </v>
   <v>      -0.19415364      -0.38916703      -0.06990609 </v>
   <v>      -0.38975637      -0.06865989      -0.19428568 </v>
   <v>       0.35943918       0.05639020      -0.31796545 </v>
   <v>      -0.31905839       0.36072792       0.05606070 </v>
   <v>       0.05604537      -0.31923144       0.36081137 </v>
   <v>      -0.38984081       0.43137998       0.30635721 </v>
   <v>       0.43176800       0.30520898      -0.38895871 </v>
   <v>       0.30631393      -0.39036548       0.43142758 </v>
   <v>      -0.13939540       0.05601788      -0.31945939 </v>
   <v>       0.05642617      -0.32016891      -0.13927708 </v>
   <v>      -0.31892800      -0.13953226       0.05575260 </v>
   <v>      -0.44445923      -0.31816567       0.36007734 </v>
   <v>      -0.31943661       0.36084158      -0.44373941 </v>
   <v>       0.36082901      -0.44378709      -0.31960064 </v>
   <v>      -0.35955392       0.13979598      -0.36104116 </v>
   <v>      -0.36012932      -0.35949036       0.14005521 </v>
   <v>       0.14027342      -0.36143308      -0.36057710 </v>
   <v>      -0.44331040       0.18089021       0.36049958 </v>
   <v>       0.36061507      -0.44381848       0.18081868 </v>
   <v>       0.18159346       0.36067916      -0.44443328 </v>
   <v>      -0.06871227       0.30623948      -0.39020555 </v>
   <v>       0.30592914      -0.39026941      -0.06842438 </v>
   <v>      -0.38932248      -0.06834703       0.30547765 </v>
   <v>       0.14028321       0.14032414      -0.35907876 </v>
   <v>      -0.36031050       0.14081636       0.13851063 </v>
   <v>       0.14005761      -0.36085585       0.13990376 </v>
   <v>      -0.19376884       0.10929440      -0.06852055 </v>
   <v>       0.10974163      -0.06923313      -0.19337096 </v>
   <v>      -0.06863886      -0.19507418       0.11095065 </v>
   <v>      -0.31902069      -0.14027494      -0.44344507 </v>
   <v>      -0.13940492      -0.44418373      -0.31949283 </v>
   <v>      -0.44443032      -0.31917978      -0.13909459 </v>
   <v>      -0.19496216      -0.38925698       0.43111591 </v>
   <v>       0.43105925      -0.19361902      -0.39007314 </v>
   <v>      -0.38991387       0.43101265      -0.19363503 </v>
   <v>       0.24752603      -0.25254119      -0.25065840 </v>
   <v>      -0.25165012       0.24827406      -0.25167126 </v>
   <v>       0.49985523      -0.49870242       0.49655071 </v>
   <v>      -0.24902685      -0.25057531       0.24984287 </v>
   <v>       0.49682629      -0.00232810      -0.49984566 </v>
   <v>       0.00052440       0.49715140      -0.49911933 </v>
   <v>       0.49954620      -0.49996032      -0.00214243 </v>
   <v>      -0.25059786      -0.24904122      -0.25197652 </v>
   <v>       0.39146324       0.38999630       0.39085144 </v>
   <v>      -0.10896892      -0.10923924      -0.10865368 </v>
   <v>      -0.35904566      -0.35991442      -0.35855301 </v>
  </varray>
 </structure>
 <varray name="primitive_index" >
  <v type="int" >        1 </v>
  <v type="int" >       38 </v>
  <v type="int" >       43 </v>
  <v type="int" >       54 </v>
  <v type="int" >       27 </v>
  <v type="int" >       29 </v>
  <v type="int" >       28 </v>
  <v type="int" >       75 </v>
  <v type="int" >       18 </v>
  <v type="int" >       20 </v>
  <v type="int" >       22 </v>
  <v type="int" >       56 </v>
  <v type="int" >       42 </v>
  <v type="int" >       37 </v>
  <v type="int" >       19 </v>
  <v type="int" >       78 </v>
  <v type="int" >       76 </v>
  <v type="int" >       52 </v>
  <v type="int" >       41 </v>
  <v type="int" >       33 </v>
  <v type="int" >       12 </v>
  <v type="int" >        8 </v>
  <v type="int" >       14 </v>
  <v type="int" >        6 </v>
  <v type="int" >       10 </v>
  <v type="int" >        4 </v>
  <v type="int" >       17 </v>
  <v type="int" >       64 </v>
  <v type="int" >       47 </v>
  <v type="int" >       57 </v>
  <v type="int" >       31 </v>
  <v type="int" >       32 </v>
  <v type="int" >       30 </v>
  <v type="int" >       72 </v>
  <v type="int" >       74 </v>
  <v type="int" >       73 </v>
  <v type="int" >       34 </v>
  <v type="int" >       53 </v>
  <v type="int" >       39 </v>
  <v type="int" >       55 </v>
  <v type="int" >       36 </v>
  <v type="int" >       44 </v>
  <v type="int" >       58 </v>
  <v type="int" >       45 </v>
  <v type="int" >       65 </v>
  <v type="int" >       63 </v>
  <v type="int" >       59 </v>
  <v type="int" >       46 </v>
  <v type="int" >       11 </v>
  <v type="int" >       13 </v>
  <v type="int" >        7 </v>
  <v type="int" >       51 </v>
  <v type="int" >       40 </v>
  <v type="int" >       35 </v>
  <v type="int" >       60 </v>
  <v type="int" >       50 </v>
  <v type="int" >       67 </v>
  <v type="int" >        3 </v>
  <v type="int" >        9 </v>
  <v type="int" >        5 </v>
  <v type="int" >       62 </v>
  <v type="int" >       49 </v>
  <v type="int" >       66 </v>
  <v type="int" >       71 </v>
  <v type="int" >       70 </v>
  <v type="int" >       69 </v>
  <v type="int" >       68 </v>
  <v type="int" >       48 </v>
  <v type="int" >       61 </v>
  <v type="int" >       77 </v>
  <v type="int" >       80 </v>
  <v type="int" >       25 </v>
  <v type="int" >       24 </v>
  <v type="int" >       79 </v>
  <v type="int" >       21 </v>
  <v type="int" >       23 </v>
  <v type="int" >       26 </v>
  <v type="int" >        2 </v>
  <v type="int" >       16 </v>
  <v type="int" >       15 </v>
 </varray>
 <kpoints>
  <generation param="Gamma">
   <v type="int" name="divisions">       4        4        4 </v>
   <v name="usershift">      0.00000000       0.00000000       0.00000000 </v>
   <v name="genvec1">      0.25000000      -0.00000000      -0.00000000 </v>
   <v name="genvec2">      0.00000000       0.25000000       0.00000000 </v>
   <v name="genvec3">     -0.00000000       0.00000000       0.25000000 </v>
   <v name="shift">      0.00000000       0.00000000       0.00000000 </v>
  </generation>
  <varray name="kpointlist" >
   <v>       0.00000000       0.00000000       0.00000000 </v>
   <v>       0.25000000      -0.00000000      -0.00000000 </v>
   <v>       0.50000000      -0.00000000      -0.00000000 </v>
   <v>       0.00000000       0.25000000      -0.00000000 </v>
   <v>       0.25000000       0.25000000      -0.00000000 </v>
   <v>       0.50000000       0.25000000       0.00000000 </v>
   <v>      -0.25000000       0.25000000       0.00000000 </v>
   <v>       0.00000000       0.50000000      -0.00000000 </v>
   <v>       0.25000000       0.50000000       0.00000000 </v>
   <v>       0.50000000       0.50000000      -0.00000000 </v>
   <v>       0.00000000      -0.00000000       0.25000000 </v>
   <v>       0.25000000      -0.00000000       0.25000000 </v>
   <v>       0.50000000      -0.00000000       0.25000000 </v>
   <v>      -0.25000000       0.00000000       0.25000000 </v>
   <v>       0.00000000       0.25000000       0.25000000 </v>
   <v>       0.25000000       0.25000000       0.25000000 </v>
   <v>       0.50000000       0.25000000       0.25000000 </v>
   <v>      -0.25000000       0.25000000       0.25000000 </v>
   <v>      -0.00000000       0.50000000       0.25000000 </v>
   <v>       0.25000000       0.50000000       0.25000000 </v>
   <v>       0.50000000       0.50000000       0.25000000 </v>
   <v>      -0.25000000       0.50000000       0.25000000 </v>
   <v>      -0.00000000      -0.25000000       0.25000000 </v>
   <v>       0.25000000      -0.25000000       0.25000000 </v>
   <v>       0.50000000      -0.25000000       0.25000000 </v>
   <v>      -0.25000000      -0.25000000       0.25000000 </v>
   <v>       0.00000000      -0.00000000       0.50000000 </v>
   <v>       0.25000000       0.00000000       0.50000000 </v>
   <v>       0.50000000      -0.00000000       0.50000000 </v>
   <v>       0.00000000       0.25000000       0.50000000 </v>
   <v>       0.25000000       0.25000000       0.50000000 </v>
   <v>       0.50000000       0.25000000       0.50000000 </v>
   <v>      -0.25000000       0.25000000       0.50000000 </v>
   <v>       0.00000000       0.50000000       0.50000000 </v>
   <v>       0.25000000       0.50000000       0.50000000 </v>
   <v>       0.50000000       0.50000000       0.50000000 </v>
  </varray>
  <varray name="weights" >
   <v>       0.01562500 </v>
   <v>       0.03125000 </v>
   <v>       0.01562500 </v>
   <v>       0.03125000 </v>
   <v>       0.03125000 </v>
   <v>       0.03125000 </v>
   <v>       0.03125000 </v>
   <v>       0.01562500 </v>
   <v>       0.03125000 </v>
   <v>       0.01562500 </v>
   <v>       0.03125000 </v>
   <v>       0.03125000 </v>
   <v>       0.03125000 </v>
   <v>       0.03125000 </v>
   <v>       0.03125000 </v>
   <v>       0.03125000 </v>
   <v>       0.03125000 </v>
   <v>       0.03125000 </v>
   <v>       0.03125000 </v>
   <v>       0.03125000 </v>
   <v>       0.03125000 </v>
   <v>       0.03125000 </v>
   <v>       0.03125000 </v>
   <v>       0.03125000 </v>
   <v>       0.03125000 </v>
   <v>       0.03125000 </v>
   <v>       0.01562500 </v>
   <v>       0.03125000 </v>
   <v>       0.01562500 </v>
   <v>       0.03125000 </v>
   <v>       0.03125000 </v>
   <v>       0.03125000 </v>
   <v>       0.03125000 </v>
   <v>       0.01562500 </v>
   <v>       0.03125000 </v>
   <v>       0.01562500 </v>
  </varray>
  <varray name="tetrahedronlist"  type="int" >
   <v type="int" >        2        1        4        5       16 </v>
   <v type="int" >        2        1        2        5       16 </v>
   <v type="int" >        2        1        2       12       16 </v>
   <v type="int" >        2        1        4       15       16 </v>
   <v type="int" >        2        1       11       15       16 </v>
   <v type="int" >        2        1       11       12       16 </v>
   <v type="int" >        2        2        5        6       17 </v>
   <v type="int" >        2        2        3        6       17 </v>
   <v type="int" >        2        2        3       13       17 </v>
   <v type="int" >        2        2        5       16       17 </v>
   <v type="int" >        2        2       12       16       17 </v>
   <v type="int" >        2        2       12       13       17 </v>
   <v type="int" >        2        3        6        7       18 </v>
   <v type="int" >        2        2        3        7       18 </v>
   <v type="int" >        2        2        3       14       18 </v>
   <v type="int" >        2        3        6       17       18 </v>
   <v type="int" >        2        3       13       17       18 </v>
   <v type="int" >        2        3       13       14       18 </v>
   <v type="int" >        2        2        4        7       15 </v>
   <v type="int" >        2        1        2        4       15 </v>
   <v type="int" >        2        1        2       11       15 </v>
   <v type="int" >        2        2        7       15       18 </v>
   <v type="int" >        2        2       14       15       18 </v>
   <v type="int" >        2        2       11       14       15 </v>
   <v type="int" >        2        4        8        9       20 </v>
   <v type="int" >        2        4        5        9       20 </v>
   <v type="int" >        2        4        5       16       20 </v>
   <v type="int" >        2        4        8       19       20 </v>
   <v type="int" >        2        4       15       19       20 </v>
   <v type="int" >        2        4       15       16       20 </v>
   <v type="int" >        2        5        9       10       21 </v>
   <v type="int" >        2        5        6       10       21 </v>
   <v type="int" >        2        5        6       17       21 </v>
   <v type="int" >        2        5        9       20       21 </v>
   <v type="int" >        2        5       16       20       21 </v>
   <v type="int" >        2        5       16       17       21 </v>
   <v type="int" >        2        6        9       10       22 </v>
   <v type="int" >        2        6        7        9       22 </v>
   <v type="int" >        2        6        7       18       22 </v>
   <v type="int" >        2        6       10       21       22 </v>
   <v type="int" >        2        6       17       21       22 </v>
   <v type="int" >        2        6       17       18       22 </v>
   <v type="int" >        2        7        8        9       19 </v>
   <v type="int" >        2        4        7        8       19 </v>
   <v type="int" >        2        4        7       15       19 </v>
   <v type="int" >        2        7        9       19       22 </v>
   <v type="int" >        2        7       18       19       22 </v>
   <v type="int" >        2        7       15       18       19 </v>
   <v type="int" >        2        4        7        8       24 </v>
   <v type="int" >        2        7        8        9       24 </v>
   <v type="int" >        2        8        9       20       24 </v>
   <v type="int" >        2        4        8       23       24 </v>
   <v type="int" >        2        8       19       23       24 </v>
   <v type="int" >        2        8       19       20       24 </v>
   <v type="int" >        2        6        7        9       25 </v>
   <v type="int" >        2        6        9       10       25 </v>
   <v type="int" >        2        9       10       21       25 </v>
   <v type="int" >        2        7        9       24       25 </v>
   <v type="int" >        2        9       20       24       25 </v>
   <v type="int" >        2        9       20       21       25 </v>
   <v type="int" >        2        5        6       10       26 </v>
   <v type="int" >        2        5        9       10       26 </v>
   <v type="int" >        2        9       10       22       26 </v>
   <v type="int" >        2        6       10       25       26 </v>
   <v type="int" >        2       10       21       25       26 </v>
   <v type="int" >        2       10       21       22       26 </v>
   <v type="int" >        2        4        5        9       23 </v>
   <v type="int" >        2        4        8        9       23 </v>
   <v type="int" >        2        8        9       19       23 </v>
   <v type="int" >        2        5        9       23       26 </v>
   <v type="int" >        2        9       22       23       26 </v>
   <v type="int" >        2        9       19       22       23 </v>
   <v type="int" >        2        1        2        4       12 </v>
   <v type="int" >        2        2        4        7       12 </v>
   <v type="int" >        2        4        7       12       24 </v>
   <v type="int" >        2        1        4       11       12 </v>
   <v type="int" >        2        4       11       12       23 </v>
   <v type="int" >        2        4       12       23       24 </v>
   <v type="int" >        2        2        3        7       13 </v>
   <v type="int" >        2        3        6        7       13 </v>
   <v type="int" >        2        6        7       13       25 </v>
   <v type="int" >        2        2        7       12       13 </v>
   <v type="int" >        2        7       12       13       24 </v>
   <v type="int" >        2        7       13       24       25 </v>
   <v type="int" >        2        2        3        6       14 </v>
   <v type="int" >        2        2        5        6       14 </v>
   <v type="int" >        2        5        6       14       26 </v>
   <v type="int" >        2        3        6       13       14 </v>
   <v type="int" >        2        6       13       14       25 </v>
   <v type="int" >        2        6       14       25       26 </v>
   <v type="int" >        2        1        2        5       11 </v>
   <v type="int" >        2        1        4        5       11 </v>
   <v type="int" >        2        4        5       11       23 </v>
   <v type="int" >        2        2        5       11       14 </v>
   <v type="int" >        2        5       11       14       26 </v>
   <v type="int" >        2        5       11       23       26 </v>
   <v type="int" >        2       11       15       16       31 </v>
   <v type="int" >        2       11       12       16       31 </v>
   <v type="int" >        2       11       12       28       31 </v>
   <v type="int" >        2       11       15       30       31 </v>
   <v type="int" >        2       11       27       30       31 </v>
   <v type="int" >        2       11       27       28       31 </v>
   <v type="int" >        2       12       16       17       32 </v>
   <v type="int" >        2       12       13       17       32 </v>
   <v type="int" >        2       12       13       29       32 </v>
   <v type="int" >        2       12       16       31       32 </v>
   <v type="int" >        2       12       28       31       32 </v>
   <v type="int" >        2       12       28       29       32 </v>
   <v type="int" >        2       13       17       18       33 </v>
   <v type="int" >        2       13       14       18       33 </v>
   <v type="int" >        2       13       14       28       33 </v>
   <v type="int" >        2       13       17       32       33 </v>
   <v type="int" >        2       13       29       32       33 </v>
   <v type="int" >        2       13       28       29       33 </v>
   <v type="int" >        2       14       15       18       30 </v>
   <v type="int" >        2       11       14       15       30 </v>
   <v type="int" >        2       11       14       27       30 </v>
   <v type="int" >        2       14       18       30       33 </v>
   <v type="int" >        2       14       28       30       33 </v>
   <v type="int" >        2       14       27       28       30 </v>
   <v type="int" >        2       15       19       20       35 </v>
   <v type="int" >        2       15       16       20       35 </v>
   <v type="int" >        2       15       16       31       35 </v>
   <v type="int" >        2       15       19       34       35 </v>
   <v type="int" >        2       15       30       34       35 </v>
   <v type="int" >        2       15       30       31       35 </v>
   <v type="int" >        2       16       20       21       36 </v>
   <v type="int" >        2       16       17       21       36 </v>
   <v type="int" >        2       16       17       32       36 </v>
   <v type="int" >        2       16       20       35       36 </v>
   <v type="int" >        2       16       31       35       36 </v>
   <v type="int" >        2       16       31       32       36 </v>
   <v type="int" >        2       17       21       22       35 </v>
   <v type="int" >        2       17       18       22       35 </v>
   <v type="int" >        2       17       18       33       35 </v>
   <v type="int" >        2       17       21       35       36 </v>
   <v type="int" >        2       17       32       35       36 </v>
   <v type="int" >        2       17       32       33       35 </v>
   <v type="int" >        2       18       19       22       34 </v>
   <v type="int" >        2       15       18       19       34 </v>
   <v type="int" >        2       15       18       30       34 </v>
   <v type="int" >        2       18       22       34       35 </v>
   <v type="int" >        2       18       33       34       35 </v>
   <v type="int" >        2       18       30       33       34 </v>
   <v type="int" >        2       19       23       24       33 </v>
   <v type="int" >        2       19       20       24       33 </v>
   <v type="int" >        2       19       20       33       35 </v>
   <v type="int" >        2       19       23       30       33 </v>
   <v type="int" >        2       19       30       33       34 </v>
   <v type="int" >        2       19       33       34       35 </v>
   <v type="int" >        2       20       24       25       32 </v>
   <v type="int" >        2       20       21       25       32 </v>
   <v type="int" >        2       20       21       32       36 </v>
   <v type="int" >        2       20       24       32       33 </v>
   <v type="int" >        2       20       32       33       35 </v>
   <v type="int" >        2       20       32       35       36 </v>
   <v type="int" >        2       21       25       26       31 </v>
   <v type="int" >        2       21       22       26       31 </v>
   <v type="int" >        2       21       22       31       35 </v>
   <v type="int" >        2       21       25       31       32 </v>
   <v type="int" >        2       21       31       32       36 </v>
   <v type="int" >        2       21       31       35       36 </v>
   <v type="int" >        2       22       23       26       30 </v>
   <v type="int" >        2       19       22       23       30 </v>
   <v type="int" >        2       19       22       30       34 </v>
   <v type="int" >        2       22       26       30       31 </v>
   <v type="int" >        2       22       30       31       35 </v>
   <v type="int" >        2       22       30       34       35 </v>
   <v type="int" >        2       11       12       23       28 </v>
   <v type="int" >        2       12       23       24       28 </v>
   <v type="int" >        2       23       24       28       33 </v>
   <v type="int" >        2       11       23       27       28 </v>
   <v type="int" >        2       23       27       28       30 </v>
   <v type="int" >        2       23       28       30       33 </v>
   <v type="int" >        2       12       13       24       29 </v>
   <v type="int" >        2       13       24       25       29 </v>
   <v type="int" >        2       24       25       29       32 </v>
   <v type="int" >        2       12       24       28       29 </v>
   <v type="int" >        2       24       28       29       33 </v>
   <v type="int" >        2       24       29       32       33 </v>
   <v type="int" >        2       13       14       25       28 </v>
   <v type="int" >        2       14       25       26       28 </v>
   <v type="int" >        2       25       26       28       31 </v>
   <v type="int" >        2       13       25       28       29 </v>
   <v type="int" >        2       25       28       29       32 </v>
   <v type="int" >        2       25       28       31       32 </v>
   <v type="int" >        2       11       14       26       27 </v>
   <v type="int" >        2       11       23       26       27 </v>
   <v type="int" >        2       23       26       27       30 </v>
   <v type="int" >        2       14       26       27       28 </v>
   <v type="int" >        2       26       27       28       31 </v>
   <v type="int" >        2       26       27       30       31 </v>
  </varray>
  <i name="volumeweight">      0.00260417 </i>
 </kpoints>
 <parameters>
  <separator name="general" >
   <i type="string" name="SYSTEM">Li(NbTa)O_3</i>
   <i type="logical" name="LCOMPAT"> F  </i>
  </separator>
  <separator name="electronic" >
   <i type="string" name="PREC">accura</i>
   <i name="ENMAX">    475.00000000</i>
   <i name="ENAUG">    605.39200000</i>
   <i name="EDIFF">      0.00000100</i>
   <i type="int" name="IALGO">    68</i>
   <i type="int" name="IWAVPR">    11</i>
   <i type="int" name="NBANDS">   288</i>
   <i name="NELECT">    464.00000000</i>
   <i type="int" name="TURBO">     0</i>
   <i type="int" name="IRESTART">     0</i>
   <i type="int" name="NREBOOT">     0</i>
   <i type="int" name="NMIN">     0</i>
   <i name="EREF">      0.00000000</i>
   <separator name="electronic smearing" >
    <i type="int" name="ISMEAR">    -5</i>
    <i name="SIGMA">      0.05000000</i>
    <i name="KSPACING">      0.50000000</i>
    <i type="logical" name="KGAMMA"> T  </i>
   </separator>
   <separator name="electronic projectors" >
    <i type="logical" name="LREAL"> T  </i>
    <v name="ROPT">     -0.00025000     -0.00025000     -0.00025000     -0.00025000</v>
    <i type="int" name="LMAXPAW">  -100</i>
    <i type="int" name="LMAXMIX">     2</i>
    <i type="logical" name="NLSPLINE"> F  </i>
   </separator>
   <separator name="electronic startup" >
    <i type="int" name="ISTART">     0</i>
    <i type="int" name="ICHARG">     2</i>
    <i type="int" name="INIWAV">     1</i>
   </separator>
   <separator name="electronic spin" >
    <i type="int" name="ISPIN">     1</i>
    <i type="logical" name="LNONCOLLINEAR"> F  </i>
    <v name="MAGMOM">      1.00000000      1.00000000      1.00000000      1.00000000      1.00000000      1.00000000      1.00000000      1.00000000      1.00000000      1.00000000      1.00000000      1.00000000      1.00000000      1.00000000      1.00000000      1.00000000      1.00000000      1.00000000      1.00000000      1.00000000
      1.00000000      1.00000000      1.00000000      1.00000000      1.00000000      1.00000000      1.00000000      1.00000000      1.00000000      1.00000000      1.00000000      1.00000000      1.00000000      1.00000000      1.00000000      1.00000000      1.00000000      1.00000000      1.00000000      1.00000000
      1.00000000      1.00000000      1.00000000      1.00000000      1.00000000      1.00000000      1.00000000      1.00000000      1.00000000      1.00000000      1.00000000      1.00000000      1.00000000      1.00000000      1.00000000      1.00000000      1.00000000      1.00000000      1.00000000      1.00000000
      1.00000000      1.00000000      1.00000000      1.00000000      1.00000000      1.00000000      1.00000000      1.00000000      1.00000000      1.00000000      1.00000000      1.00000000      1.00000000      1.00000000      1.00000000      1.00000000      1.00000000      1.00000000      1.00000000      1.00000000
</v>
    <i name="NUPDOWN">     -1.00000000</i>
    <i type="logical" name="LSORBIT"> F  </i>
    <v name="SAXIS">      0.00000000      0.00000000      1.00000000</v>
    <i type="logical" name="LSPIRAL"> F  </i>
    <v name="QSPIRAL">      0.00000000      0.00000000      0.00000000</v>
    <i type="logical" name="LZEROZ"> F  </i>
   </separator>
   <separator name="electronic exchange-correlation" >
    <i type="logical" name="LASPH"> F  </i>
    <i type="logical" name="LMETAGGA"> F  </i>
   </separator>
   <separator name="electronic convergence" >
    <i type="int" name="NELM">  1000</i>
    <i type="int" name="NELMDL">    -5</i>
    <i type="int" name="NELMIN">     4</i>
    <i name="ENINI">    475.00000000</i>
    <separator name="electronic convergence detail" >
     <i type="logical" name="LDIAG"> T  </i>
     <i type="logical" name="LSUBROT"> F  </i>
     <i name="WEIMIN">      0.00100000</i>
     <i name="EBREAK">      0.00000000</i>
     <i name="DEPER">      0.30000000</i>
     <i type="int" name="NRMM">     4</i>
     <i name="TIME">      0.40000000</i>
    </separator>
   </separator>
   <separator name="electronic mixer" >
    <i name="AMIX">      0.40000000</i>
    <i name="BMIX">      1.00000000</i>
    <i name="AMIN">      0.10000000</i>
    <i name="AMIX_MAG">      1.60000000</i>
    <i name="BMIX_MAG">      1.00000000</i>
    <separator name="electronic mixer details" >
     <i type="int" name="IMIX">     4</i>
     <i type="logical" name="MIXFIRST"> F  </i>
     <i type="int" name="MAXMIX">   -45</i>
     <i name="WC">    100.00000000</i>
     <i type="int" name="INIMIX">     1</i>
     <i type="int" name="MIXPRE">     1</i>
     <i type="int" name="MREMOVE">     5</i>
    </separator>
   </separator>
   <separator name="electronic dipolcorrection" >
    <i type="logical" name="LDIPOL"> F  </i>
    <i type="logical" name="LMONO"> F  </i>
    <i type="int" name="IDIPOL">     0</i>
    <i name="EPSILON">      1.00000000</i>
    <v name="DIPOL">   -100.00000000   -100.00000000   -100.00000000</v>
    <i name="EFIELD">      0.00000000</i>
   </separator>
  </separator>
  <separator name="grids" >
   <i type="int" name="NGX">    80</i>
   <i type="int" name="NGY">    80</i>
   <i type="int" name="NGZ">    80</i>
   <i type="int" name="NGXF">   160</i>
   <i type="int" name="NGYF">   160</i>
   <i type="int" name="NGZF">   160</i>
   <i type="logical" name="ADDGRID"> F  </i>
  </separator>
  <separator name="ionic" >
   <i type="int" name="NSW">   200</i>
   <i type="int" name="IBRION">     1</i>
   <i type="int" name="MDALGO">     0</i>
   <i type="int" name="ISIF">     4</i>
   <i name="PSTRESS">      0.00000000</i>
   <i name="EDIFFG">     -0.00500000</i>
   <i type="int" name="NFREE">     0</i>
   <i name="POTIM">      0.15000000</i>
   <i name="SMASS">     -3.00000000</i>
   <i name="SCALEE">      1.00000000</i>
  </separator>
  <separator name="ionic md" >
   <i name="TEBEG">      0.00010000</i>
   <i name="TEEND">      0.00010000</i>
   <i type="int" name="NBLOCK">     1</i>
   <i type="int" name="KBLOCK">   200</i>
   <i type="int" name="NPACO">   256</i>
   <i name="APACO">     16.00000000</i>
  </separator>
  <separator name="symmetry" >
   <i type="int" name="ISYM">     2</i>
   <i name="SYMPREC">      0.00001000</i>
  </separator>
  <separator name="dos" >
   <i type="int" name="LORBIT">     0</i>
   <v name="RWIGS">     -1.00000000     -1.00000000     -1.00000000     -1.00000000</v>
   <i type="int" name="NEDOS">   301</i>
   <i name="EMIN">     10.00000000</i>
   <i name="EMAX">    -10.00000000</i>
   <i name="EFERMI">      0.00000000</i>
  </separator>
  <separator name="writing" >
   <i type="int" name="NWRITE">     0</i>
   <i type="logical" name="LWAVE"> F  </i>
   <i type="logical" name="LDOWNSAMPLE"> F  </i>
   <i type="logical" name="LCHARG"> F  </i>
   <i type="logical" name="LPARD"> F  </i>
   <i type="logical" name="LVTOT"> F  </i>
   <i type="logical" name="LVHAR"> F  </i>
   <i type="logical" name="LELF"> F  </i>
   <i type="logical" name="LOPTICS"> F  </i>
   <v name="STM">      0.00000000      0.00000000      0.00000000      0.00000000      0.00000000      0.00000000      0.00000000</v>
  </separator>
  <separator name="performance" >
   <i type="int" name="NPAR">    72</i>
   <i type="int" name="NSIM">     4</i>
   <i type="int" name="NBLK">    -1</i>
   <i type="logical" name="LPLANE"> T  </i>
   <i type="logical" name="LSCALAPACK"> F  </i>
   <i type="logical" name="LSCAAWARE"> F  </i>
   <i type="logical" name="LSCALU"> F  </i>
   <i type="logical" name="LASYNC"> F  </i>
   <i type="logical" name="LORBITALREAL"> F  </i>
  </separator>
  <separator name="miscellaneous" >
   <i type="int" name="IDIOT">     3</i>
   <i type="int" name="ISPECIAL">     0</i>
   <i type="logical" name="LMUSIC"> F  </i>
   <v name="POMASS">      7.01000000     92.91000000     16.00000000    180.94800000</v>
   <v name="DARWINR">      0.00000000      0.00000000      0.00000000      0.00000000</v>
   <v name="DARWINV">      1.00000000      1.00000000      1.00000000      1.00000000</v>
   <i type="logical" name="LCORR"> T  </i>
  </separator>
  <i type="logical" name="GGA_COMPAT"> T  </i>
  <i type="logical" name="LBERRY"> F  </i>
  <i type="int" name="ICORELEVEL">     0</i>
  <i type="logical" name="LDAU"> F  </i>
  <i type="int" name="I_CONSTRAINED_M">     0</i>
  <separator name="electronic exchange-correlation" >
   <i type="string" name="GGA">PS</i>
   <i type="int" name="VOSKOWN">     0</i>
   <i type="logical" name="LHFCALC"> F  </i>
   <i type="string" name="PRECFOCK"></i>
   <i type="logical" name="LSYMGRAD"> F  </i>
   <i type="logical" name="LHFONE"> F  </i>
   <i type="logical" name="LRHFCALC"> F  </i>
   <i type="logical" name="LTHOMAS"> F  </i>
   <i type="logical" name="LMODELHF"> F  </i>
   <i name="ENCUT4O">     -1.00000000</i>
   <i type="int" name="EXXOEP">     0</i>
   <i type="int" name="FOURORBIT">     0</i>
   <i name="AEXX">      0.00000000</i>
   <i name="HFALPHA">      0.00000000</i>
   <i name="MCALPHA">      0.00000000</i>
   <i name="ALDAX">      1.00000000</i>
   <i name="AGGAX">      1.00000000</i>
   <i name="ALDAC">      1.00000000</i>
   <i name="AGGAC">      1.00000000</i>
   <i type="int" name="NKREDX">     1</i>
   <i type="int" name="NKREDY">     1</i>
   <i type="int" name="NKREDZ">     1</i>
   <i type="logical" name="SHIFTRED"> F  </i>
   <i type="logical" name="ODDONLY"> F  </i>
   <i type="logical" name="EVENONLY"> F  </i>
   <i type="int" name="LMAXFOCK">     0</i>
   <i type="int" name="NMAXFOCKAE">     0</i>
   <i type="logical" name="LFOCKAEDFT"> F  </i>
   <i name="HFSCREEN">      0.00000000</i>
   <i name="HFSCREENC">      0.00000000</i>
   <i type="int" name="NBANDSGWLOW">     0</i>
  </separator>
  <separator name="vdW DFT" >
   <i type="logical" name="LUSE_VDW"> F  </i>
   <i name="Zab_VDW">     -0.84910000</i>
   <i name="PARAM1">      0.12340000</i>
   <i name="PARAM2">      1.00000000</i>
   <i name="PARAM3">      0.00000000</i>
  </separator>
  <separator name="model GW" >
   <i type="int" name="MODEL_GW">     0</i>
   <i name="MODEL_EPS0">      6.22636318</i>
   <i name="MODEL_ALPHA">      1.00000000</i>
  </separator>
  <separator name="linear response parameters" >
   <i type="logical" name="LEPSILON"> F  </i>
   <i type="logical" name="LRPA"> F  </i>
   <i type="logical" name="LNABLA"> F  </i>
   <i type="logical" name="LVEL"> F  </i>
   <i type="int" name="KINTER">     0</i>
   <i name="CSHIFT">      0.10000000</i>
   <i name="OMEGAMAX">     -1.00000000</i>
   <i name="DEG_THRESHOLD">      0.00200000</i>
   <i name="RTIME">     -0.10000000</i>
   <i name="WPLASMAI">      0.00000000</i>
   <v name="DFIELD">      0.00000000      0.00000000      0.00000000</v>
   <v name="WPLASMA">      0.00000000      0.00000000      0.00000000      0.00000000      0.00000000      0.00000000      0.00000000      0.00000000      0.00000000</v>
  </separator>
  <separator name="orbital magnetization" >
   <i type="logical" name="NUCIND"> F  </i>
   <v name="MAGPOS">      0.00000000      0.00000000      0.00000000</v>
   <i type="logical" name="LNICSALL"> T  </i>
   <i type="logical" name="ORBITALMAG"> F  </i>
   <i type="logical" name="LMAGBLOCH"> F  </i>
   <i type="logical" name="LCHIMAG"> F  </i>
   <i type="logical" name="LGAUGE"> T  </i>
   <i type="int" name="MAGATOM">     0</i>
   <v name="MAGDIPOL">      0.00000000      0.00000000      0.00000000</v>
   <v name="AVECCONST">      0.00000000      0.00000000      0.00000000</v>
  </separator>
  <separator name="response functions" >
   <i type="logical" name="LADDER"> F  </i>
   <i type="logical" name="LRPAFORCE"> F  </i>
   <i type="logical" name="LFXC"> F  </i>
   <i type="logical" name="LHARTREE"> T  </i>
   <i type="int" name="IBSE">     0</i>
   <v type="int" name="KPOINT">    -1     0     0     0</v>
   <i type="logical" name="LTCTE"> F  </i>
   <i type="logical" name="LTETE"> F  </i>
   <i type="logical" name="LTRIPLET"> F  </i>
   <i type="logical" name="LFXCEPS"> F  </i>
   <i type="logical" name="LFXHEG"> F  </i>
   <i type="int" name="NATURALO">     2</i>
   <i type="logical" name="L2ORDER"> F  </i>
   <i type="logical" name="LMP2LT"> F  </i>
   <i type="logical" name="LUSEW"> F  </i>
   <i name="ENCUTGW">     -2.00000000</i>
   <i name="ENCUTGWSOFT">     -2.00000000</i>
   <i name="ENCUTLF">     -1.00000000</i>
   <i type="int" name="LMAXMP2">    -1</i>
   <i name="SCISSOR">      0.00000000</i>
   <i type="int" name="NOMEGA">     0</i>
   <i type="int" name="NOMEGAR">     0</i>
   <i type="int" name="NBANDSGW">    -1</i>
   <i type="int" name="NBANDSO">    -1</i>
   <i type="int" name="NBANDSV">    -1</i>
   <i type="int" name="NELM">  1000</i>
   <i type="int" name="NELMHF">     1</i>
   <i type="int" name="DIM">     3</i>
   <i type="int" name="ANTIRES">     0</i>
   <i name="OMEGAMAX">    -30.00000000</i>
   <i name="OMEGAMIN">    -30.00000000</i>
   <i name="OMEGATL">   -200.00000000</i>
   <i type="int" name="OMEGAGRID">   140</i>
   <i name="CSHIFT">     -0.10000000</i>
   <i type="logical" name="SELFENERGY"> F  </i>
   <i type="logical" name="LSPECTRAL"> F  </i>
   <i type="logical" name="LSPECTRALGW"> F  </i>
   <i type="logical" name="LSINGLES"> F  </i>
   <i type="logical" name="LFERMIGW"> F  </i>
   <i type="logical" name="ODDONLYGW"> F  </i>
   <i type="logical" name="EVENONLYGW"> F  </i>
   <i type="int" name="NKREDLFX">     1</i>
   <i type="int" name="NKREDLFY">     1</i>
   <i type="int" name="NKREDLFZ">     1</i>
   <i type="int" name="MAXMEM">  2800</i>
   <i type="int" name="TELESCOPE">     0</i>
   <i type="int" name="TAUPAR">     1</i>
   <i type="int" name="OMEGAPAR">    -1</i>
   <i name="LAMBDA">      1.00000000</i>
  </separator>
  <separator name="External order field" >
   <i name="OFIELD_KAPPA">      0.00000000</i>
   <v name="OFIELD_K">      0.00000000      0.00000000      0.00000000</v>
   <i name="OFIELD_Q6_NEAR">      0.00000000</i>
   <i name="OFIELD_Q6_FAR">      0.00000000</i>
   <i name="OFIELD_A">      0.00000000</i>
  </separator>
 </parameters>
 <atominfo>
  <atoms>      80 </atoms>
  <types>       4 </types>
  <array name="atoms" >
   <dimension dim="1">ion</dimension>
   <field type="string">element</field>
   <field type="int">atomtype</field>
   <set>
    <rc><c>Li</c><c>   1</c></rc>
    <rc><c>Li</c><c>   1</c></rc>
    <rc><c>Li</c><c>   1</c></rc>
    <rc><c>Li</c><c>   1</c></rc>
    <rc><c>Li</c><c>   1</c></rc>
    <rc><c>Li</c><c>   1</c></rc>
    <rc><c>Li</c><c>   1</c></rc>
    <rc><c>Li</c><c>   1</c></rc>
    <rc><c>Li</c><c>   1</c></rc>
    <rc><c>Li</c><c>   1</c></rc>
    <rc><c>Li</c><c>   1</c></rc>
    <rc><c>Li</c><c>   1</c></rc>
    <rc><c>Li</c><c>   1</c></rc>
    <rc><c>Li</c><c>   1</c></rc>
    <rc><c>Li</c><c>   1</c></rc>
    <rc><c>Li</c><c>   1</c></rc>
    <rc><c>Nb</c><c>   2</c></rc>
    <rc><c>Nb</c><c>   2</c></rc>
    <rc><c>Nb</c><c>   2</c></rc>
    <rc><c>Nb</c><c>   2</c></rc>
    <rc><c>Nb</c><c>   2</c></rc>
    <rc><c>Nb</c><c>   2</c></rc>
    <rc><c>Nb</c><c>   2</c></rc>
    <rc><c>Nb</c><c>   2</c></rc>
    <rc><c>Nb</c><c>   2</c></rc>
    <rc><c>Nb</c><c>   2</c></rc>
    <rc><c>O </c><c>   3</c></rc>
    <rc><c>O </c><c>   3</c></rc>
    <rc><c>O </c><c>   3</c></rc>
    <rc><c>O </c><c>   3</c></rc>
    <rc><c>O </c><c>   3</c></rc>
    <rc><c>O </c><c>   3</c></rc>
    <rc><c>O </c><c>   3</c></rc>
    <rc><c>O </c><c>   3</c></rc>
    <rc><c>O </c><c>   3</c></rc>
    <rc><c>O </c><c>   3</c></rc>
    <rc><c>O </c><c>   3</c></rc>
    <rc><c>O </c><c>   3</c></rc>
    <rc><c>O </c><c>   3</c></rc>
    <rc><c>O </c><c>   3</c></rc>
    <rc><c>O </c><c>   3</c></rc>
    <rc><c>O </c><c>   3</c></rc>
    <rc><c>O </c><c>   3</c></rc>
    <rc><c>O </c><c>   3</c></rc>
    <rc><c>O </c><c>   3</c></rc>
    <rc><c>O </c><c>   3</c></rc>
    <rc><c>O </c><c>   3</c></rc>
    <rc><c>O </c><c>   3</c></rc>
    <rc><c>O </c><c>   3</c></rc>
    <rc><c>O </c><c>   3</c></rc>
    <rc><c>O </c><c>   3</c></rc>
    <rc><c>O </c><c>   3</c></rc>
    <rc><c>O </c><c>   3</c></rc>
    <rc><c>O </c><c>   3</c></rc>
    <rc><c>O </c><c>   3</c></rc>
    <rc><c>O </c><c>   3</c></rc>
    <rc><c>O </c><c>   3</c></rc>
    <rc><c>O </c><c>   3</c></rc>
    <rc><c>O </c><c>   3</c></rc>
    <rc><c>O </c><c>   3</c></rc>
    <rc><c>O </c><c>   3</c></rc>
    <rc><c>O </c><c>   3</c></rc>
    <rc><c>O </c><c>   3</c></rc>
    <rc><c>O </c><c>   3</c></rc>
    <rc><c>O </c><c>   3</c></rc>
    <rc><c>O </c><c>   3</c></rc>
    <rc><c>O </c><c>   3</c></rc>
    <rc><c>O </c><c>   3</c></rc>
    <rc><c>O </c><c>   3</c></rc>
    <rc><c>O </c><c>   3</c></rc>
    <rc><c>O </c><c>   3</c></rc>
    <rc><c>O </c><c>   3</c></rc>
    <rc><c>O </c><c>   3</c></rc>
    <rc><c>O </c><c>   3</c></rc>
    <rc><c>Ta</c><c>   4</c></rc>
    <rc><c>Ta</c><c>   4</c></rc>
    <rc><c>Ta</c><c>   4</c></rc>
    <rc><c>Ta</c><c>   4</c></rc>
    <rc><c>Ta</c><c>   4</c></rc>
    <rc><c>Ta</c><c>   4</c></rc>
   </set>
  </array>
  <array name="atomtypes" >
   <dimension dim="1">type</dimension>
   <field type="int">atomspertype</field>
   <field type="string">element</field>
   <field>mass</field>
   <field>valence</field>
   <field type="string">pseudopotential</field>
   <set>
    <rc><c>  16</c><c>Li</c><c>      7.01000000</c><c>      1.00000000</c><c>  PAW_PBE Li 17Jan2003                  </c></rc>
    <rc><c>  10</c><c>Nb</c><c>     92.91000000</c><c>     13.00000000</c><c>  PAW_PBE Nb_sv 25May2007               </c></rc>
    <rc><c>  48</c><c>O </c><c>     16.00000000</c><c>      6.00000000</c><c>  PAW_PBE O 08Apr2002                   </c></rc>
    <rc><c>   6</c><c>Ta</c><c>    180.94800000</c><c>      5.00000000</c><c>  PAW_PBE Ta 17Jan2003                  </c></rc>
   </set>
  </array>
 </atominfo>
 <structure name="initialpos" >
  <crystal>
   <varray name="basis" >
    <v>       5.11640507      -2.95237278       9.16070117 </v>
    <v>       0.00245651       5.90632203       9.15984421 </v>
    <v>      -5.11381539      -2.95371415       9.15882963 </v>
   </varray>
   <i name="volume">    830.18175776 </i>
   <varray name="rec_basis" >
    <v>       0.09775035      -0.05645059       0.03637346 </v>
    <v>      -0.00002146       0.11287458       0.03638997 </v>
    <v>      -0.09774887      -0.05642496       0.03640936 </v>
   </varray>
  </crystal>
  <varray name="positions" >
   <v>       0.13834752       0.13936271       0.13984335 </v>
   <v>       0.39146324       0.38999630       0.39085144 </v>
   <v>       0.14028321       0.14032414       0.64092124 </v>
   <v>       0.39173469       0.39088444       0.89059988 </v>
   <v>       0.14005761       0.63914415       0.13990376 </v>
   <v>       0.38998511       0.89022976       0.39046082 </v>
   <v>       0.14027342       0.63856692       0.63942290 </v>
   <v>       0.39066873       0.89122478       0.89017412 </v>
   <v>       0.63968950       0.14081636       0.13851063 </v>
   <v>       0.89081879       0.39199278       0.39127564 </v>
   <v>       0.64044608       0.13979598       0.63895884 </v>
   <v>       0.89104424       0.39188824       0.88993991 </v>
   <v>       0.63987068       0.64050964       0.14005521 </v>
   <v>       0.88952244       0.89019616       0.39154151 </v>
   <v>       0.64095434       0.64008558       0.64144699 </v>
   <v>       0.89103108       0.89076076       0.89134632 </v>
   <v>       0.99959237       0.00150112       0.99675172 </v>
   <v>       0.99938324       0.00003493       0.49763958 </v>
   <v>       0.25168038       0.24891337       0.74959517 </v>
   <v>       0.99749990       0.49794372       0.00086033 </v>
   <v>       0.00052440       0.49715140       0.50088067 </v>
   <v>       0.49988249       0.99738472       0.00090131 </v>
   <v>       0.49954620       0.50003968       0.99785757 </v>
   <v>       0.75097315       0.74942469       0.24984287 </v>
   <v>       0.49985523       0.50129758       0.49655071 </v>
   <v>       0.74940214       0.75095878       0.74802348 </v>
   <v>       0.05623360       0.18120304       0.36059596 </v>
   <v>       0.36055215       0.05618073       0.18135900 </v>
   <v>       0.18067803       0.36043515       0.05635112 </v>
   <v>       0.43164615       0.30579781       0.11007695 </v>
   <v>       0.10933811       0.43208088       0.30572184 </v>
   <v>       0.30616879       0.11038237       0.43144631 </v>
   <v>       0.05540035       0.18155956       0.86034038 </v>
   <v>       0.35943918       0.05639020       0.68203455 </v>
   <v>       0.18159346       0.36067916       0.55556672 </v>
   <v>       0.43176800       0.30520898       0.61104129 </v>
   <v>       0.11066152       0.43074915       0.80539644 </v>
   <v>       0.30515946       0.11079423       0.93190663 </v>
   <v>       0.05604537       0.68076856       0.36081137 </v>
   <v>       0.36061507       0.55618152       0.18081868 </v>
   <v>       0.18040413       0.86090372       0.05629587 </v>
   <v>       0.43096027       0.80670950       0.10983535 </v>
   <v>       0.11018018       0.93120277       0.30647725 </v>
   <v>       0.30631393       0.60963452       0.43142758 </v>
   <v>       0.05642617       0.67983109       0.86072292 </v>
   <v>       0.36082901       0.55621291       0.68039936 </v>
   <v>       0.18050111       0.86073339       0.55625759 </v>
   <v>       0.43105925       0.80638098       0.60992686 </v>
   <v>       0.10974163       0.93076687       0.80662904 </v>
   <v>       0.30592914       0.60973059       0.93157562 </v>
   <v>       0.55668960       0.18089021       0.36049958 </v>
   <v>       0.86099568       0.05588109       0.18065345 </v>
   <v>       0.68094161       0.36072792       0.05606070 </v>
   <v>       0.93094987       0.30643726       0.10970186 </v>
   <v>       0.61015919       0.43137998       0.30635721 </v>
   <v>       0.80662739       0.10979363       0.43135599 </v>
   <v>       0.55625493       0.18016866       0.86082204 </v>
   <v>       0.86060460       0.05601788       0.68054061 </v>
   <v>       0.68056339       0.36084158       0.55626059 </v>
   <v>       0.93128773       0.30623948       0.60979445 </v>
   <v>       0.61008613       0.43101265       0.80636497 </v>
   <v>       0.80623116       0.10929440       0.93147945 </v>
   <v>       0.55554077       0.68183433       0.36007734 </v>
   <v>       0.86007458       0.55634829       0.18046819 </v>
   <v>       0.68107200       0.86046774       0.05575260 </v>
   <v>       0.93136114       0.80492582       0.11095065 </v>
   <v>       0.61067752       0.93165297       0.30547765 </v>
   <v>       0.80503784       0.61074302       0.43111591 </v>
   <v>       0.55556968       0.68082022       0.86090541 </v>
   <v>       0.86059508       0.55581627       0.68050717 </v>
   <v>       0.68097931       0.85972506       0.55655493 </v>
   <v>       0.93138973       0.80539064       0.61084254 </v>
   <v>       0.61024363       0.93134011       0.80571432 </v>
   <v>       0.80584636       0.61083297       0.93009391 </v>
   <v>       0.24862253       0.24992729       0.24762435 </v>
   <v>       0.24806756       0.74806531       0.24849505 </v>
   <v>       0.24752603       0.74745881       0.74934160 </v>
   <v>       0.74730972       0.24776208       0.24918815 </v>
   <v>       0.49682629       0.99767190       0.50015434 </v>
   <v>       0.74834988       0.24827406       0.74832874 </v>
  </varray>
 </structure>
 <calculation>
  <scstep>
   <time name="dav">   26.65   26.65</time>
   <time name="total">   26.80   26.82</time>
   <energy>
    <i name="alphaZ">   1657.51521512 </i>
    <i name="ewald"> -26889.04147160 </i>
    <i name="hartreedc"> -10593.51483879 </i>
    <i name="XCdc">   1468.59413161 </i>
    <i name="pawpsdc">  30201.20122080 </i>
    <i name="pawaedc"> -29545.67637776 </i>
    <i name="eentropy">      0.00000000 </i>
    <i name="bandstr">    264.54226585 </i>
    <i name="atom">  37080.84622879 </i>
    <i name="e_fr_energy">   3644.46637402 </i>
    <i name="e_wo_entrp">   3644.46637402 </i>
    <i name="e_0_energy">   3644.46637402 </i>
   </energy>
  </scstep>
  <scstep>
   <time name="dav">   39.45   39.46</time>
   <time name="total">   39.46   39.47</time>
   <energy>
    <i name="e_fr_energy">   -557.68794678 </i>
    <i name="e_wo_entrp">   -557.68794678 </i>
    <i name="e_0_energy">   -557.68794678 </i>
   </energy>
  </scstep>
  <scstep>
   <time name="dav">   39.30   39.31</time>
   <time name="total">   39.31   39.32</time>
   <energy>
    <i name="e_fr_energy">   -798.89243134 </i>
    <i name="e_wo_entrp">   -798.89243134 </i>
    <i name="e_0_energy">   -798.89243134 </i>
   </energy>
  </scstep>
  <scstep>
   <time name="dav">   45.71   45.72</time>
   <time name="total">   45.72   45.73</time>
   <energy>
    <i name="e_fr_energy">   -809.75886609 </i>
    <i name="e_wo_entrp">   -809.75886609 </i>
    <i name="e_0_energy">   -809.75886609 </i>
   </energy>
  </scstep>
  <scstep>
   <time name="dav">   40.11   40.12</time>
   <time name="total">   41.12   41.13</time>
   <energy>
    <i name="e_fr_energy">   -809.96880098 </i>
    <i name="e_wo_entrp">   -809.96880098 </i>
    <i name="e_0_energy">   -809.96880098 </i>
   </energy>
  </scstep>
  <scstep>
   <time name="diag">    3.97    3.97</time>
   <time name="diis">   13.96   13.96</time>
   <time name="orth">    0.56    0.56</time>
   <time name="total">   19.55   19.57</time>
   <energy>
    <i name="e_fr_energy">   -689.79159116 </i>
    <i name="e_wo_entrp">   -689.79159116 </i>
    <i name="e_0_energy">   -689.79159116 </i>
   </energy>
  </scstep>
  <scstep>
   <time name="diag">    3.98    3.98</time>
   <time name="diis">   16.17   16.17</time>
   <time name="orth">    0.56    0.56</time>
   <time name="total">   21.78   21.79</time>
   <energy>
    <i name="e_fr_energy">   -680.47738872 </i>
    <i name="e_wo_entrp">   -680.47738872 </i>
    <i name="e_0_energy">   -680.47738872 </i>
   </energy>
  </scstep>
  <scstep>
   <time name="diag">    3.98    3.98</time>
   <time name="diis">   16.38   16.38</time>
   <time name="orth">    0.56    0.56</time>
   <time name="total">   21.98   21.99</time>
   <energy>
    <i name="e_fr_energy">   -680.31143907 </i>
    <i name="e_wo_entrp">   -680.31143907 </i>
    <i name="e_0_energy">   -680.31143907 </i>
   </energy>
  </scstep>
  <scstep>
   <time name="diag">    3.99    3.99</time>
   <time name="diis">   18.23   18.23</time>
   <time name="orth">    0.56    0.56</time>
   <time name="total">   23.84   23.86</time>
   <energy>
    <i name="e_fr_energy">   -680.24290977 </i>
    <i name="e_wo_entrp">   -680.24290977 </i>
    <i name="e_0_energy">   -680.24290977 </i>
   </energy>
  </scstep>
  <scstep>
   <time name="diag">    3.98    3.98</time>
   <time name="diis">   18.33   18.33</time>
   <time name="orth">    0.56    0.56</time>
   <time name="total">   23.93   23.94</time>
   <energy>
    <i name="e_fr_energy">   -680.24634067 </i>
    <i name="e_wo_entrp">   -680.24634067 </i>
    <i name="e_0_energy">   -680.24634067 </i>
   </energy>
  </scstep>
  <scstep>
   <time name="diag">    3.97    3.97</time>
   <time name="diis">   18.60   18.60</time>
   <time name="orth">    0.56    0.56</time>
   <time name="total">   24.19   24.20</time>
   <energy>
    <i name="e_fr_energy">   -680.25835242 </i>
    <i name="e_wo_entrp">   -680.25835242 </i>
    <i name="e_0_energy">   -680.25835242 </i>
   </energy>
  </scstep>
  <scstep>
   <time name="diag">    3.95    3.95</time>
   <time name="diis">   18.64   18.64</time>
   <time name="orth">    0.56    0.56</time>
   <time name="total">   24.21   24.22</time>
   <energy>
    <i name="e_fr_energy">   -680.26174021 </i>
    <i name="e_wo_entrp">   -680.26174021 </i>
    <i name="e_0_energy">   -680.26174021 </i>
   </energy>
  </scstep>
  <scstep>
   <time name="diag">    3.95    3.95</time>
   <time name="diis">   19.32   19.32</time>
   <time name="orth">    0.56    0.56</time>
   <time name="total">   24.89   24.90</time>
   <energy>
    <i name="e_fr_energy">   -680.26269924 </i>
    <i name="e_wo_entrp">   -680.26269924 </i>
    <i name="e_0_energy">   -680.26269924 </i>
   </energy>
  </scstep>
  <scstep>
   <time name="diag">    3.96    3.96</time>
   <time name="diis">   18.67   18.67</time>
   <time name="orth">    0.56    0.56</time>
   <time name="total">   24.25   24.27</time>
   <energy>
    <i name="e_fr_energy">   -680.26327301 </i>
    <i name="e_wo_entrp">   -680.26327301 </i>
    <i name="e_0_energy">   -680.26327301 </i>
   </energy>
  </scstep>
  <scstep>
   <time name="diag">    3.96    3.96</time>
   <time name="diis">   19.30   19.29</time>
   <time name="orth">    0.56    0.56</time>
   <time name="total">   24.87   24.89</time>
   <energy>
    <i name="e_fr_energy">   -680.26345412 </i>
    <i name="e_wo_entrp">   -680.26345412 </i>
    <i name="e_0_energy">   -680.26345412 </i>
   </energy>
  </scstep>
  <scstep>
   <time name="diag">    3.95    3.95</time>
   <time name="diis">   19.40   19.40</time>
   <time name="orth">    0.55    0.55</time>
   <time name="total">   24.96   24.98</time>
   <energy>
    <i name="e_fr_energy">   -680.26353696 </i>
    <i name="e_wo_entrp">   -680.26353696 </i>
    <i name="e_0_energy">   -680.26353696 </i>
   </energy>
  </scstep>
  <scstep>
   <time name="diag">    3.96    3.96</time>
   <time name="diis">   19.24   19.23</time>
   <time name="orth">    0.56    0.56</time>
   <time name="total">   24.82   24.82</time>
   <energy>
    <i name="e_fr_energy">   -680.26356919 </i>
    <i name="e_wo_entrp">   -680.26356919 </i>
    <i name="e_0_energy">   -680.26356919 </i>
   </energy>
  </scstep>
  <scstep>
   <time name="diag">    3.96    3.96</time>
   <time name="diis">   19.05   19.04</time>
   <time name="orth">    0.56    0.56</time>
   <time name="total">   24.62   24.63</time>
   <energy>
    <i name="e_fr_energy">   -680.26358054 </i>
    <i name="e_wo_entrp">   -680.26358054 </i>
    <i name="e_0_energy">   -680.26358054 </i>
   </energy>
  </scstep>
  <scstep>
   <time name="diag">    3.96    3.96</time>
   <time name="diis">   17.86   17.86</time>
   <time name="orth">    0.56    0.56</time>
   <time name="total">   23.44   23.46</time>
   <energy>
    <i name="e_fr_energy">   -680.26358640 </i>
    <i name="e_wo_entrp">   -680.26358640 </i>
    <i name="e_0_energy">   -680.26358640 </i>
   </energy>
  </scstep>
  <scstep>
   <time name="diag">    3.96    3.96</time>
   <time name="diis">   16.38   16.38</time>
   <time name="orth">    0.56    0.56</time>
   <time name="total">   21.95   21.97</time>
   <energy>
    <i name="e_fr_energy">   -680.26358939 </i>
    <i name="e_wo_entrp">   -680.26358939 </i>
    <i name="e_0_energy">   -680.26358939 </i>
   </energy>
  </scstep>
  <scstep>
   <time name="diag">    3.95    3.95</time>
   <time name="diis">   16.57   16.57</time>
   <time name="orth">    0.56    0.56</time>
   <time name="total">   21.15   21.16</time>
   <energy>
    <i name="alphaZ">   1657.51521512 </i>
    <i name="ewald"> -26889.04147160 </i>
    <i name="hartreedc"> -10994.41673543 </i>
    <i name="XCdc">   1516.19775876 </i>
    <i name="pawpsdc">  46512.33665433 </i>
    <i name="pawaedc"> -45842.58949647 </i>
    <i name="eentropy">      0.00000000 </i>
    <i name="bandstr">  -3721.11174248 </i>
    <i name="atom">  37080.84622879 </i>
    <i name="e_fr_energy">   -680.26358897 </i>
    <i name="e_wo_entrp">   -680.26358897 </i>
    <i name="e_0_energy">   -680.26358897 </i>
   </energy>
  </scstep>
  <structure>
   <crystal>
    <varray name="basis" >
     <v>       5.11640507      -2.95237278       9.16070117 </v>
     <v>       0.00245651       5.90632203       9.15984421 </v>
     <v>      -5.11381539      -2.95371415       9.15882963 </v>
    </varray>
    <i name="volume">    830.18175776 </i>
    <varray name="rec_basis" >
     <v>       0.09775035      -0.05645059       0.03637346 </v>
     <v>      -0.00002146       0.11287458       0.03638997 </v>
     <v>      -0.09774887      -0.05642496       0.03640936 </v>
    </varray>
   </crystal>
   <varray name="positions" >
    <v>       0.13834752       0.13936271       0.13984335 </v>
    <v>       0.39146324       0.38999630       0.39085144 </v>
    <v>       0.14028321       0.14032414       0.64092124 </v>
    <v>       0.39173469       0.39088444       0.89059988 </v>
    <v>       0.14005761       0.63914415       0.13990376 </v>
    <v>       0.38998511       0.89022976       0.39046082 </v>
    <v>       0.14027342       0.63856692       0.63942290 </v>
    <v>       0.39066873       0.89122478       0.89017412 </v>
    <v>       0.63968950       0.14081636       0.13851063 </v>
    <v>       0.89081879       0.39199278       0.39127564 </v>
    <v>       0.64044608       0.13979598       0.63895884 </v>
    <v>       0.89104424       0.39188824       0.88993991 </v>
    <v>       0.63987068       0.64050964       0.14005521 </v>
    <v>       0.88952244       0.89019616       0.39154151 </v>
    <v>       0.64095434       0.64008558       0.64144699 </v>
    <v>       0.89103108       0.89076076       0.89134632 </v>
    <v>       0.99959237       0.00150112       0.99675172 </v>
    <v>       0.99938324       0.00003493       0.49763958 </v>
    <v>       0.25168038       0.24891337       0.74959517 </v>
    <v>       0.99749990       0.49794372       0.00086033 </v>
    <v>       0.00052440       0.49715140       0.50088067 </v>
    <v>       0.49988249       0.99738472       0.00090131 </v>
    <v>       0.49954620       0.50003968       0.99785757 </v>
    <v>       0.75097315       0.74942469       0.24984287 </v>
    <v>       0.49985523       0.50129758       0.49655071 </v>
    <v>       0.74940214       0.75095878       0.74802348 </v>
    <v>       0.05623360       0.18120304       0.36059596 </v>
    <v>       0.36055215       0.05618073       0.18135900 </v>
    <v>       0.18067803       0.36043515       0.05635112 </v>
    <v>       0.43164615       0.30579781       0.11007695 </v>
    <v>       0.10933811       0.43208088       0.30572184 </v>
    <v>       0.30616879       0.11038237       0.43144631 </v>
    <v>       0.05540035       0.18155956       0.86034038 </v>
    <v>       0.35943918       0.05639020       0.68203455 </v>
    <v>       0.18159346       0.36067916       0.55556672 </v>
    <v>       0.43176800       0.30520898       0.61104129 </v>
    <v>       0.11066152       0.43074915       0.80539644 </v>
    <v>       0.30515946       0.11079423       0.93190663 </v>
    <v>       0.05604537       0.68076856       0.36081137 </v>
    <v>       0.36061507       0.55618152       0.18081868 </v>
    <v>       0.18040413       0.86090372       0.05629587 </v>
    <v>       0.43096027       0.80670950       0.10983535 </v>
    <v>       0.11018018       0.93120277       0.30647725 </v>
    <v>       0.30631393       0.60963452       0.43142758 </v>
    <v>       0.05642617       0.67983109       0.86072292 </v>
    <v>       0.36082901       0.55621291       0.68039936 </v>
    <v>       0.18050111       0.86073339       0.55625759 </v>
    <v>       0.43105925       0.80638098       0.60992686 </v>
    <v>       0.10974163       0.93076687       0.80662904 </v>
    <v>       0.30592914       0.60973059       0.93157562 </v>
    <v>       0.55668960       0.18089021       0.36049958 </v>
    <v>       0.86099568       0.05588109       0.18065345 </v>
    <v>       0.68094161       0.36072792       0.05606070 </v>
    <v>       0.93094987       0.30643726       0.10970186 </v>
    <v>       0.61015919       0.43137998       0.30635721 </v>
    <v>       0.80662739       0.10979363       0.43135599 </v>
    <v>       0.55625493       0.18016866       0.86082204 </v>
    <v>       0.86060460       0.05601788       0.68054061 </v>
    <v>       0.68056339       0.36084158       0.55626059 </v>
    <v>       0.93128773       0.30623948       0.60979445 </v>
    <v>       0.61008613       0.43101265       0.80636497 </v>
    <v>       0.80623116       0.10929440       0.93147945 </v>
    <v>       0.55554077       0.68183433       0.36007734 </v>
    <v>       0.86007458       0.55634829       0.18046819 </v>
    <v>       0.68107200       0.86046774       0.05575260 </v>
    <v>       0.93136114       0.80492582       0.11095065 </v>
    <v>       0.61067752       0.93165297       0.30547765 </v>
    <v>       0.80503784       0.61074302       0.43111591 </v>
    <v>       0.55556968       0.68082022       0.86090541 </v>
    <v>       0.86059508       0.55581627       0.68050717 </v>
    <v>       0.68097931       0.85972506       0.55655493 </v>
    <v>       0.93138973       0.80539064       0.61084254 </v>
    <v>       0.61024363       0.93134011       0.80571432 </v>
    <v>       0.80584636       0.61083297       0.93009391 </v>
    <v>       0.24862253       0.24992729       0.24762435 </v>
    <v>       0.24806756       0.74806531       0.24849505 </v>
    <v>       0.24752603       0.74745881       0.74934160 </v>
    <v>       0.74730972       0.24776208       0.24918815 </v>
    <v>       0.49682629       0.99767190       0.50015434 </v>
    <v>       0.74834988       0.24827406       0.74832874 </v>
   </varray>
  </structure>
  <varray name="forces" >
   <v>       0.00094748       0.00000158       0.00785035 </v>
   <v>      -0.00116223       0.00167850       0.00279514 </v>
   <v>      -0.00029290       0.00033160       0.00422624 </v>
   <v>      -0.00160938       0.00085227       0.00066614 </v>
   <v>       0.00005302       0.00036622       0.00649011 </v>
   <v>       0.00116432      -0.00048086       0.00356655 </v>
   <v>      -0.00034860       0.00163503       0.00671467 </v>
   <v>       0.00030935      -0.00018115       0.00333720 </v>
   <v>      -0.00020616      -0.00084370       0.00590430 </v>
   <v>       0.00108917      -0.00034290       0.00018637 </v>
   <v>      -0.00091562      -0.00043827       0.00626160 </v>
   <v>      -0.00044154      -0.00188001       0.00153336 </v>
   <v>      -0.00055444      -0.00050006       0.00542715 </v>
   <v>       0.00047272       0.00012531       0.00333503 </v>
   <v>       0.00023339       0.00097522       0.00282193 </v>
   <v>      -0.00051080       0.00080503       0.00095255 </v>
   <v>      -0.00882572      -0.01333447      -0.07275672 </v>
   <v>      -0.00462803      -0.00477883      -0.06607283 </v>
   <v>      -0.00590157       0.00474202      -0.08119666 </v>
   <v>       0.01236900       0.00389147      -0.06773464 </v>
   <v>       0.00278496       0.01425020      -0.07649189 </v>
   <v>      -0.00034115       0.01138281      -0.07345191 </v>
   <v>      -0.00640440      -0.00741561      -0.06901774 </v>
   <v>      -0.00407297       0.00722970      -0.08434302 </v>
   <v>      -0.00944751      -0.01088561      -0.06881926 </v>
   <v>      -0.00364042      -0.00623638      -0.07537616 </v>
   <v>       0.01247576       0.11717670       0.01532992 </v>
   <v>      -0.10523544      -0.04566297       0.01181099 </v>
   <v>       0.09498905      -0.05971300       0.00729333 </v>
   <v>       0.12691250      -0.03634841       0.03429398 </v>
   <v>      -0.03492062       0.12701961       0.03333880 </v>
   <v>      -0.09828238      -0.06785812       0.01334930 </v>
   <v>       0.03466065       0.12631978       0.03472125 </v>
   <v>      -0.12607158      -0.03541845       0.03174280 </v>
   <v>       0.09308934      -0.09187823       0.03125960 </v>
   <v>       0.12588308      -0.03082957       0.03091133 </v>
   <v>      -0.02997531       0.12018655       0.02642988 </v>
   <v>      -0.09237460      -0.08899502       0.02658070 </v>
   <v>       0.00350704       0.11268185       0.00377164 </v>
   <v>      -0.09998091      -0.05238910       0.00595043 </v>
   <v>       0.09288593      -0.06386997       0.00595682 </v>
   <v>       0.11800705      -0.03944744       0.02515241 </v>
   <v>      -0.02522262       0.12172167       0.02540552 </v>
   <v>      -0.09210979      -0.08375356       0.02837925 </v>
   <v>       0.00509735       0.11013667       0.00395000 </v>
   <v>      -0.10001475      -0.05292698       0.00559147 </v>
   <v>       0.09279829      -0.06505704       0.00864028 </v>
   <v>       0.10631110      -0.05453779       0.00957446 </v>
   <v>      -0.02430898       0.12603061       0.02911401 </v>
   <v>      -0.09176986      -0.08908514       0.03082446 </v>
   <v>       0.00751621       0.11647328       0.00915544 </v>
   <v>      -0.10224697      -0.05269994       0.00661634 </v>
   <v>       0.09468166      -0.06330175       0.00833458 </v>
   <v>       0.11422719      -0.04091452       0.02287029 </v>
   <v>      -0.02323761       0.12232278       0.02511637 </v>
   <v>      -0.09368454      -0.08417590       0.02562276 </v>
   <v>       0.00859816       0.11335330       0.00838614 </v>
   <v>      -0.10408134      -0.05133507       0.01040274 </v>
   <v>       0.09163084      -0.06303175       0.00671761 </v>
   <v>       0.11942603      -0.03839791       0.02782704 </v>
   <v>      -0.02459089       0.12600427       0.02881637 </v>
   <v>      -0.09283927      -0.08205096       0.02894038 </v>
   <v>       0.03319493       0.12291430       0.03184042 </v>
   <v>      -0.12035188      -0.03267027       0.02897681 </v>
   <v>       0.09101094      -0.09117025       0.03071199 </v>
   <v>       0.12914445      -0.03016375       0.03175178 </v>
   <v>      -0.01236941       0.11846982       0.01120118 </v>
   <v>      -0.09461768      -0.09507016       0.03371741 </v>
   <v>       0.03312866       0.12336999       0.03090831 </v>
   <v>      -0.12319240      -0.03265305       0.02889159 </v>
   <v>       0.09564498      -0.08387029       0.02754124 </v>
   <v>       0.12109497      -0.03592569       0.02641539 </v>
   <v>      -0.02952593       0.11824650       0.02459659 </v>
   <v>      -0.08862754      -0.07927025       0.02299994 </v>
   <v>      -0.00259962      -0.01059801      -0.06366877 </v>
   <v>      -0.00077317      -0.00029341      -0.05664889 </v>
   <v>       0.00332570       0.00146346      -0.05731237 </v>
   <v>       0.00236816      -0.00068480      -0.05224361 </v>
   <v>       0.01122752       0.00239838      -0.05685179 </v>
   <v>       0.00004755      -0.00119011      -0.05781383 </v>
  </varray>
  <varray name="stress" >
   <v>      23.39422428       0.00853462       0.02498085 </v>
   <v>       0.00853453      23.36274345       0.02509591 </v>
   <v>       0.02498078       0.02509634      20.83754620 </v>
  </varray>
  <energy>
   <i name="e_fr_energy">   -680.26358897 </i>
   <i name="e_wo_entrp">   -680.26358897 </i>
   <i name="e_0_energy">      0.00000000 </i>
  </energy>
  <time name="totalsc">  601.45  601.75</time>
 </calculation>
 <calculation>
  <scstep>
   <time name="dav">   30.27   30.27</time>
   <time name="total">   31.32   31.34</time>
   <energy>
    <i name="alphaZ">   1657.51521512 </i>
    <i name="ewald"> -26896.71212397 </i>
    <i name="hartreedc"> -10988.44208621 </i>
    <i name="XCdc">   1516.11814100 </i>
    <i name="pawpsdc">  46512.65337650 </i>
    <i name="pawaedc"> -45842.87994181 </i>
    <i name="eentropy">      0.00000000 </i>
    <i name="bandstr">  -3719.37091969 </i>
    <i name="atom">  37080.84622879 </i>
    <i name="e_fr_energy">   -680.27211027 </i>
    <i name="e_wo_entrp">   -680.27211027 </i>
    <i name="e_0_energy">   -680.27211027 </i>
   </energy>
  </scstep>
  <scstep>
   <time name="diag">    3.96    3.96</time>
   <time name="diis">   13.26   13.26</time>
   <time name="orth">    0.55    0.55</time>
   <time name="total">   18.83   18.85</time>
   <energy>
    <i name="e_fr_energy">   -680.27407286 </i>
    <i name="e_wo_entrp">   -680.27407286 </i>
    <i name="e_0_energy">   -680.27407286 </i>
   </energy>
  </scstep>
  <scstep>
   <time name="diag">    3.97    3.97</time>
   <time name="diis">   15.41   15.41</time>
   <time name="orth">    0.56    0.56</time>
   <time name="total">   20.98   20.99</time>
   <energy>
    <i name="e_fr_energy">   -680.27379914 </i>
    <i name="e_wo_entrp">   -680.27379914 </i>
    <i name="e_0_energy">   -680.27379914 </i>
   </energy>
  </scstep>
  <scstep>
   <time name="diag">    3.97    3.97</time>
   <time name="diis">   19.50   19.49</time>
   <time name="orth">    0.57    0.57</time>
   <time name="total">   25.07   25.08</time>
   <energy>
    <i name="e_fr_energy">   -680.27379620 </i>
    <i name="e_wo_entrp">   -680.27379620 </i>
    <i name="e_0_energy">   -680.27379620 </i>
   </energy>
  </scstep>
  <scstep>
   <time name="diag">    3.96    3.96</time>
   <time name="diis">   19.27   19.27</time>
   <time name="orth">    0.56    0.56</time>
   <time name="total">   24.84   24.85</time>
   <energy>
    <i name="e_fr_energy">   -680.27379846 </i>
    <i name="e_wo_entrp">   -680.27379846 </i>
    <i name="e_0_energy">   -680.27379846 </i>
   </energy>
  </scstep>
  <scstep>
   <time name="diag">    3.95    3.95</time>
   <time name="diis">   16.59   16.59</time>
   <time name="orth">    0.56    0.56</time>
   <time name="total">   22.15   22.17</time>
   <energy>
    <i name="e_fr_energy">   -680.27380050 </i>
    <i name="e_wo_entrp">   -680.27380050 </i>
    <i name="e_0_energy">   -680.27380050 </i>
   </energy>
  </scstep>
  <scstep>
   <time name="diag">    3.96    3.96</time>
   <time name="diis">   16.20   16.20</time>
   <time name="orth">    0.56    0.56</time>
   <time name="total">   21.76   21.77</time>
   <energy>
    <i name="e_fr_energy">   -680.27380124 </i>
    <i name="e_wo_entrp">   -680.27380124 </i>
    <i name="e_0_energy">   -680.27380124 </i>
   </energy>
  </scstep>
  <scstep>
   <time name="diag">    3.96    3.96</time>
   <time name="diis">   10.89   10.89</time>
   <time name="orth">    0.56    0.56</time>
   <time name="total">   15.47   15.48</time>
   <energy>
    <i name="alphaZ">   1657.51521512 </i>
    <i name="ewald"> -26896.71212397 </i>
    <i name="hartreedc"> -10986.65206116 </i>
    <i name="XCdc">   1516.05228286 </i>
    <i name="pawpsdc">  46429.43679704 </i>
    <i name="pawaedc"> -45759.74961611 </i>
    <i name="eentropy">      0.00000000 </i>
    <i name="bandstr">  -3721.01052389 </i>
    <i name="atom">  37080.84622879 </i>
    <i name="e_fr_energy">   -680.27380130 </i>
    <i name="e_wo_entrp">   -680.27380130 </i>
    <i name="e_0_energy">   -680.27380130 </i>
   </energy>
  </scstep>
  <structure>
   <crystal>
    <varray name="basis" >
     <v>       5.11683796      -2.95257721       9.15925162 </v>
     <v>       0.00248288       5.90680384       9.15840366 </v>
     <v>      -5.11420990      -2.95392687       9.15735642 </v>
    </varray>
    <i name="volume">    830.18175776 </i>
    <varray name="rec_basis" >
     <v>       0.09774241      -0.05644636       0.03637914 </v>
     <v>      -0.00002163       0.11286570       0.03639548 </v>
     <v>      -0.09774100      -0.05642057       0.03641551 </v>
    </varray>
   </crystal>
   <varray name="positions" >
    <v>       0.13835299       0.13936685       0.13984614 </v>
    <v>       0.39146170       0.39000052       0.39085318 </v>
    <v>       0.14028475       0.14032691       0.64092362 </v>
    <v>       0.39173207       0.39088618       0.89060181 </v>
    <v>       0.14006080       0.63914817       0.13990680 </v>
    <v>       0.38998903       0.89023086       0.39046144 </v>
    <v>       0.14027513       0.63857313       0.63942560 </v>
    <v>       0.39067107       0.89122624       0.89017559 </v>
    <v>       0.63969301       0.14081809       0.13851472 </v>
    <v>       0.89082071       0.39199232       0.39127448 </v>
    <v>       0.64044844       0.13979856       0.63896380 </v>
    <v>       0.89104596       0.39188598       0.88994288 </v>
    <v>       0.63987316       0.64051168       0.14005926 </v>
    <v>       0.88952477       0.89019812       0.39154250 </v>
    <v>       0.64095536       0.64008866       0.64144735 </v>
    <v>       0.89103020       0.89076258       0.89134689 </v>
    <v>       0.99955248       0.00144102       0.99673676 </v>
    <v>       0.99934582      -0.00000768       0.49761521 </v>
    <v>       0.25162541       0.24887836       0.74955686 </v>
    <v>       0.99747856       0.49791440       0.00080396 </v>
    <v>       0.00047643       0.49713439       0.50082478 </v>
    <v>       0.49983404       0.99736463       0.00085379 </v>
    <v>       0.49950687       0.49999122       0.99783632 </v>
    <v>       0.75091709       0.74939208       0.24979828 </v>
    <v>       0.49981453       0.50124355       0.49653670 </v>
    <v>       0.74936240       0.75090889       0.74799400 </v>
    <v>       0.05616359       0.18140253       0.36049070 </v>
    <v>       0.36044680       0.05611239       0.18155139 </v>
    <v>       0.18086504       0.36034142       0.05626934 </v>
    <v>       0.43187345       0.30575646       0.10994516 </v>
    <v>       0.10920248       0.43230595       0.30568508 </v>
    <v>       0.30609222       0.11027858       0.43164780 </v>
    <v>       0.05536446       0.18178419       0.86020649 </v>
    <v>       0.35930647       0.05634909       0.68225856 </v>
    <v>       0.18181667       0.36054551       0.55552653 </v>
    <v>       0.43198755       0.30517485       0.61090466 </v>
    <v>       0.11053483       0.43095941       0.80535463 </v>
    <v>       0.30511548       0.11066288       0.93212400 </v>
    <v>       0.05596025       0.68095462       0.36071637 </v>
    <v>       0.36051956       0.55609910       0.18100604 </v>
    <v>       0.18059085       0.86080249       0.05621977 </v>
    <v>       0.43117269       0.80665827       0.10971388 </v>
    <v>       0.11005843       0.93141500       0.30642691 </v>
    <v>       0.30626698       0.60951267       0.43164124 </v>
    <v>       0.05634548       0.68001309       0.86062785 </v>
    <v>       0.36073370       0.55612943       0.68058702 </v>
    <v>       0.18069010       0.86063163       0.55618399 </v>
    <v>       0.43125925       0.80629690       0.60982604 </v>
    <v>       0.10961960       0.93098809       0.80657586 </v>
    <v>       0.30588832       0.60960132       0.93179444 </v>
    <v>       0.55660990       0.18108530       0.36039866 </v>
    <v>       0.86089757       0.05579851       0.18084463 </v>
    <v>       0.68113166       0.36062887       0.05598284 </v>
    <v>       0.93115694       0.30638243       0.10958573 </v>
    <v>       0.61003960       0.43159305       0.30630343 </v>
    <v>       0.80657711       0.10966964       0.43157076 </v>
    <v>       0.55617890       0.18035825       0.86072173 </v>
    <v>       0.86050477       0.05593953       0.68073525 </v>
    <v>       0.68074806       0.36074212       0.55618597 </v>
    <v>       0.93150271       0.30619137       0.60967152 </v>
    <v>       0.60996357       0.43123368       0.80631205 </v>
    <v>       0.80618209       0.10917563       0.93169304 </v>
    <v>       0.55550407       0.68205188       0.35994678 </v>
    <v>       0.85994626       0.55631022       0.18068040 </v>
    <v>       0.68129141       0.86033495       0.05571448 </v>
    <v>       0.93158521       0.80489322       0.11080931 </v>
    <v>       0.61056913       0.93185240       0.30540431 </v>
    <v>       0.80499941       0.61060550       0.43134517 </v>
    <v>       0.55553203       0.68103803       0.86077409 </v>
    <v>       0.86046268       0.55577818       0.68072334 </v>
    <v>       0.68119764       0.85960252       0.55650262 </v>
    <v>       0.93160431       0.80534583       0.61071449 </v>
    <v>       0.61011820       0.93154625       0.80567249 </v>
    <v>       0.80579785       0.61071561       0.93029614 </v>
    <v>       0.24859399       0.24987644       0.24760313 </v>
    <v>       0.24803688       0.74803499       0.24846653 </v>
    <v>       0.24749937       0.74743101       0.74930550 </v>
    <v>       0.74728613       0.24773344       0.24915783 </v>
    <v>       0.49681029       0.99764587       0.50010654 </v>
    <v>       0.74832049       0.24824167       0.74829917 </v>
   </varray>
  </structure>
  <varray name="forces" >
   <v>       0.00144762       0.00026040       0.00843026 </v>
   <v>      -0.00205730       0.00179621       0.00323089 </v>
   <v>      -0.00108326       0.00078391       0.00584553 </v>
   <v>      -0.00175113       0.00088148       0.00044048 </v>
   <v>      -0.00017580       0.00084125       0.00624562 </v>
   <v>       0.00177066      -0.00113866       0.00276377 </v>
   <v>      -0.00082317       0.00180986       0.00660378 </v>
   <v>       0.00070688      -0.00038900       0.00374430 </v>
[...]
       <r>    1.8354    1.0000 </r>
       <r>    1.8535    1.0000 </r>
       <r>    1.8655    1.0000 </r>
       <r>    1.8704    1.0000 </r>
       <r>    1.9848    1.0000 </r>
       <r>    2.0032    1.0000 </r>
       <r>    2.0188    1.0000 </r>
       <r>    2.0421    1.0000 </r>
       <r>    2.0524    1.0000 </r>
       <r>    2.0844    1.0000 </r>
       <r>    2.1014    1.0000 </r>
       <r>    2.1189    1.0000 </r>
       <r>    2.1479    1.0000 </r>
       <r>    2.1668    1.0000 </r>
       <r>    2.1732    1.0000 </r>
       <r>    2.1919    1.0000 </r>
       <r>    2.2040    1.0000 </r>
       <r>    2.2223    1.0000 </r>
       <r>    2.2507    1.0000 </r>
       <r>    2.2634    1.0000 </r>
       <r>    2.2867    1.0000 </r>
       <r>    2.3118    1.0000 </r>
       <r>    2.3219    1.0000 </r>
       <r>    2.3662    1.0000 </r>
       <r>    2.4016    1.0000 </r>
       <r>    2.4053    1.0000 </r>
       <r>    2.4145    1.0000 </r>
       <r>    2.4307    1.0000 </r>
       <r>    2.4401    1.0000 </r>
       <r>    2.4583    1.0000 </r>
       <r>    2.4711    1.0000 </r>
       <r>    2.4762    1.0000 </r>
       <r>    2.5376    1.0000 </r>
       <r>    2.5588    1.0000 </r>
       <r>    2.5899    1.0000 </r>
       <r>    2.5989    1.0000 </r>
       <r>    2.7246    1.0000 </r>
       <r>    2.7394    1.0000 </r>
       <r>    2.7467    1.0000 </r>
       <r>    2.7602    1.0000 </r>
       <r>    2.7649    1.0000 </r>
       <r>    2.7943    1.0000 </r>
       <r>    2.8001    1.0000 </r>
       <r>    2.8101    1.0000 </r>
       <r>    2.8247    1.0000 </r>
       <r>    2.8499    1.0000 </r>
       <r>    6.5732    0.0000 </r>
       <r>    6.6056    0.0000 </r>
       <r>    6.7250    0.0000 </r>
       <r>    6.7601    0.0000 </r>
       <r>    6.7989    0.0000 </r>
       <r>    6.8154    0.0000 </r>
       <r>    6.8610    0.0000 </r>
       <r>    6.8706    0.0000 </r>
       <r>    6.8956    0.0000 </r>
       <r>    6.9271    0.0000 </r>
       <r>    6.9432    0.0000 </r>
       <r>    6.9748    0.0000 </r>
       <r>    6.9983    0.0000 </r>
       <r>    7.0456    0.0000 </r>
       <r>    7.0529    0.0000 </r>
       <r>    7.1161    0.0000 </r>
       <r>    7.1496    0.0000 </r>
       <r>    7.3218    0.0000 </r>
       <r>    7.3770    0.0000 </r>
       <r>    7.3881    0.0000 </r>
       <r>    7.4184    0.0000 </r>
       <r>    7.4956    0.0000 </r>
       <r>    7.5906    0.0000 </r>
       <r>    7.6186    0.0000 </r>
       <r>    7.7486    0.0000 </r>
       <r>    7.7902    0.0000 </r>
       <r>    7.8380    0.0000 </r>
       <r>    7.8914    0.0000 </r>
       <r>    7.9212    0.0000 </r>
       <r>    7.9581    0.0000 </r>
       <r>    8.0380    0.0000 </r>
       <r>    8.0558    0.0000 </r>
       <r>    8.1481    0.0000 </r>
       <r>    8.2172    0.0000 </r>
       <r>    8.2378    0.0000 </r>
       <r>    8.2628    0.0000 </r>
       <r>    8.2862    0.0000 </r>
       <r>    8.3191    0.0000 </r>
       <r>    8.3368    0.0000 </r>
       <r>    8.4192    0.0000 </r>
       <r>    8.4960    0.0000 </r>
       <r>    8.5388    0.0000 </r>
       <r>    8.5918    0.0000 </r>
       <r>    8.6160    0.0000 </r>
       <r>    8.6420    0.0000 </r>
       <r>    8.6746    0.0000 </r>
       <r>    8.7005    0.0000 </r>
       <r>    8.8042    0.0000 </r>
       <r>   10.5743    0.0000 </r>
       <r>   10.7348    0.0000 </r>
       <r>   10.7801    0.0000 </r>
       <r>   10.8348    0.0000 </r>
       <r>   10.9155    0.0000 </r>
       <r>   10.9408    0.0000 </r>
       <r>   11.0170    0.0000 </r>
       <r>   11.0628    0.0000 </r>
      </set>
      <set comment="kpoint 36">
       <r>  -51.2115    1.0000 </r>
       <r>  -51.2098    1.0000 </r>
       <r>  -51.1928    1.0000 </r>
       <r>  -51.1876    1.0000 </r>
       <r>  -51.1762    1.0000 </r>
       <r>  -51.1714    1.0000 </r>
       <r>  -51.1532    1.0000 </r>
       <r>  -51.1501    1.0000 </r>
       <r>  -51.1471    1.0000 </r>
       <r>  -51.1252    1.0000 </r>
       <r>  -27.5299    1.0000 </r>
       <r>  -27.5275    1.0000 </r>
       <r>  -27.5239    1.0000 </r>
       <r>  -27.5171    1.0000 </r>
       <r>  -27.5134    1.0000 </r>
       <r>  -27.5071    1.0000 </r>
       <r>  -27.4962    1.0000 </r>
       <r>  -27.4865    1.0000 </r>
       <r>  -27.4809    1.0000 </r>
       <r>  -27.4706    1.0000 </r>
       <r>  -27.4559    1.0000 </r>
       <r>  -27.4507    1.0000 </r>
       <r>  -27.4456    1.0000 </r>
       <r>  -27.4434    1.0000 </r>
       <r>  -27.4418    1.0000 </r>
       <r>  -27.4268    1.0000 </r>
       <r>  -27.4233    1.0000 </r>
       <r>  -27.4197    1.0000 </r>
       <r>  -27.4100    1.0000 </r>
       <r>  -27.4064    1.0000 </r>
       <r>  -27.3869    1.0000 </r>
       <r>  -27.3861    1.0000 </r>
       <r>  -27.3753    1.0000 </r>
       <r>  -27.3581    1.0000 </r>
       <r>  -27.3557    1.0000 </r>
       <r>  -27.3514    1.0000 </r>
       <r>  -27.3381    1.0000 </r>
       <r>  -27.3133    1.0000 </r>
       <r>  -27.3083    1.0000 </r>
       <r>  -27.2939    1.0000 </r>
       <r>  -14.0814    1.0000 </r>
       <r>  -14.0276    1.0000 </r>
       <r>  -13.7999    1.0000 </r>
       <r>  -13.7569    1.0000 </r>
       <r>  -13.7491    1.0000 </r>
       <r>  -13.6790    1.0000 </r>
       <r>  -13.6484    1.0000 </r>
       <r>  -13.6228    1.0000 </r>
       <r>  -13.4642    1.0000 </r>
       <r>  -13.4294    1.0000 </r>
       <r>  -13.4139    1.0000 </r>
       <r>  -13.4092    1.0000 </r>
       <r>  -13.4060    1.0000 </r>
       <r>  -13.3893    1.0000 </r>
       <r>  -13.3320    1.0000 </r>
       <r>  -13.3268    1.0000 </r>
       <r>  -13.3230    1.0000 </r>
       <r>  -13.3067    1.0000 </r>
       <r>  -13.2778    1.0000 </r>
       <r>  -13.2660    1.0000 </r>
       <r>  -13.2587    1.0000 </r>
       <r>  -13.2464    1.0000 </r>
       <r>  -13.2426    1.0000 </r>
       <r>  -13.2270    1.0000 </r>
       <r>  -12.8796    1.0000 </r>
       <r>  -12.8350    1.0000 </r>
       <r>  -12.8083    1.0000 </r>
       <r>  -12.7877    1.0000 </r>
       <r>  -12.7736    1.0000 </r>
       <r>  -12.7710    1.0000 </r>
       <r>  -12.7574    1.0000 </r>
       <r>  -12.7542    1.0000 </r>
       <r>  -12.7335    1.0000 </r>
       <r>  -12.7175    1.0000 </r>
       <r>  -12.7111    1.0000 </r>
       <r>  -12.6874    1.0000 </r>
       <r>  -12.6843    1.0000 </r>
       <r>  -12.6449    1.0000 </r>
       <r>  -12.6333    1.0000 </r>
       <r>  -12.6191    1.0000 </r>
       <r>  -12.6180    1.0000 </r>
       <r>  -12.6105    1.0000 </r>
       <r>  -12.6013    1.0000 </r>
       <r>  -12.5465    1.0000 </r>
       <r>  -12.5004    1.0000 </r>
       <r>  -12.4782    1.0000 </r>
       <r>  -12.4558    1.0000 </r>
       <r>  -12.4463    1.0000 </r>
       <r>   -1.7371    1.0000 </r>
       <r>   -1.7254    1.0000 </r>
       <r>   -1.7224    1.0000 </r>
       <r>   -1.6920    1.0000 </r>
       <r>   -1.6373    1.0000 </r>
       <r>   -1.6065    1.0000 </r>
       <r>   -1.5993    1.0000 </r>
       <r>   -1.5433    1.0000 </r>
       <r>   -1.5390    1.0000 </r>
       <r>   -1.5301    1.0000 </r>
       <r>   -1.5259    1.0000 </r>
       <r>   -1.5151    1.0000 </r>
       <r>   -1.5126    1.0000 </r>
       <r>   -1.5087    1.0000 </r>
       <r>   -1.4827    1.0000 </r>
       <r>   -1.4700    1.0000 </r>
       <r>   -1.4471    1.0000 </r>
       <r>   -1.4360    1.0000 </r>
       <r>   -1.4317    1.0000 </r>
       <r>   -1.4237    1.0000 </r>
       <r>   -1.4181    1.0000 </r>
       <r>   -1.4126    1.0000 </r>
       <r>   -1.3043    1.0000 </r>
       <r>   -1.2707    1.0000 </r>
       <r>   -1.2450    1.0000 </r>
       <r>   -1.2125    1.0000 </r>
       <r>   -1.2024    1.0000 </r>
       <r>   -1.1820    1.0000 </r>
       <r>   -1.1583    1.0000 </r>
       <r>   -1.1384    1.0000 </r>
       <r>   -1.0055    1.0000 </r>
       <r>   -1.0028    1.0000 </r>
       <r>   -0.9812    1.0000 </r>
       <r>   -0.9780    1.0000 </r>
       <r>   -0.5666    1.0000 </r>
       <r>   -0.5121    1.0000 </r>
       <r>   -0.5016    1.0000 </r>
       <r>   -0.4959    1.0000 </r>
       <r>   -0.4785    1.0000 </r>
       <r>   -0.4652    1.0000 </r>
       <r>   -0.4617    1.0000 </r>
       <r>   -0.4306    1.0000 </r>
       <r>   -0.2092    1.0000 </r>
       <r>   -0.1885    1.0000 </r>
       <r>   -0.1876    1.0000 </r>
       <r>   -0.1757    1.0000 </r>
       <r>   -0.1733    1.0000 </r>
       <r>   -0.1645    1.0000 </r>
       <r>    0.0651    1.0000 </r>
       <r>    0.0836    1.0000 </r>
       <r>    0.0935    1.0000 </r>
       <r>    0.1067    1.0000 </r>
       <r>    0.1148    1.0000 </r>
       <r>    0.1248    1.0000 </r>
       <r>    0.2001    1.0000 </r>
       <r>    0.2051    1.0000 </r>
       <r>    0.2344    1.0000 </r>
       <r>    0.2397    1.0000 </r>
       <r>    0.2481    1.0000 </r>
       <r>    0.2536    1.0000 </r>
       <r>    0.3211    1.0000 </r>
       <r>    0.3378    1.0000 </r>
       <r>    0.3452    1.0000 </r>
       <r>    0.3511    1.0000 </r>
       <r>    0.3566    1.0000 </r>
       <r>    0.3613    1.0000 </r>
       <r>    0.7098    1.0000 </r>
       <r>    0.7225    1.0000 </r>
       <r>    0.7355    1.0000 </r>
       <r>    0.7630    1.0000 </r>
       <r>    0.7686    1.0000 </r>
       <r>    0.7913    1.0000 </r>
       <r>    0.9521    1.0000 </r>
       <r>    0.9636    1.0000 </r>
       <r>    0.9639    1.0000 </r>
       <r>    0.9870    1.0000 </r>
       <r>    0.9948    1.0000 </r>
       <r>    1.0076    1.0000 </r>
       <r>    1.4107    1.0000 </r>
       <r>    1.4159    1.0000 </r>
       <r>    1.4362    1.0000 </r>
       <r>    1.4399    1.0000 </r>
       <r>    1.4872    1.0000 </r>
       <r>    1.5038    1.0000 </r>
       <r>    1.5072    1.0000 </r>
       <r>    1.5288    1.0000 </r>
       <r>    1.5315    1.0000 </r>
       <r>    1.5436    1.0000 </r>
       <r>    1.5511    1.0000 </r>
       <r>    1.5683    1.0000 </r>
       <r>    1.5761    1.0000 </r>
       <r>    1.5783    1.0000 </r>
       <r>    1.5903    1.0000 </r>
       <r>    1.6069    1.0000 </r>
       <r>    1.7124    1.0000 </r>
       <r>    1.7380    1.0000 </r>
       <r>    1.7625    1.0000 </r>
       <r>    1.7824    1.0000 </r>
       <r>    1.9232    1.0000 </r>
       <r>    1.9271    1.0000 </r>
       <r>    1.9533    1.0000 </r>
       <r>    1.9546    1.0000 </r>
       <r>    1.9643    1.0000 </r>
       <r>    1.9753    1.0000 </r>
       <r>    2.0809    1.0000 </r>
       <r>    2.0883    1.0000 </r>
       <r>    2.0942    1.0000 </r>
       <r>    2.0974    1.0000 </r>
       <r>    2.1060    1.0000 </r>
       <r>    2.1178    1.0000 </r>
       <r>    2.1440    1.0000 </r>
       <r>    2.1448    1.0000 </r>
       <r>    2.1528    1.0000 </r>
       <r>    2.1550    1.0000 </r>
       <r>    2.1646    1.0000 </r>
       <r>    2.1680    1.0000 </r>
       <r>    2.2877    1.0000 </r>
       <r>    2.2956    1.0000 </r>
       <r>    2.3267    1.0000 </r>
       <r>    2.3313    1.0000 </r>
       <r>    2.3399    1.0000 </r>
       <r>    2.3428    1.0000 </r>
       <r>    2.3460    1.0000 </r>
       <r>    2.3540    1.0000 </r>
       <r>    2.3575    1.0000 </r>
       <r>    2.3618    1.0000 </r>
       <r>    2.3805    1.0000 </r>
       <r>    2.3929    1.0000 </r>
       <r>    2.4396    1.0000 </r>
       <r>    2.4436    1.0000 </r>
       <r>    2.4493    1.0000 </r>
       <r>    2.4590    1.0000 </r>
       <r>    2.4645    1.0000 </r>
       <r>    2.4674    1.0000 </r>
       <r>    2.7693    1.0000 </r>
       <r>    2.7771    1.0000 </r>
       <r>    2.7820    1.0000 </r>
       <r>    2.7861    1.0000 </r>
       <r>    2.7949    1.0000 </r>
       <r>    2.8006    1.0000 </r>
       <r>    2.8515    1.0000 </r>
       <r>    2.8539    1.0000 </r>
       <r>    2.8892    1.0000 </r>
       <r>    2.8933    1.0000 </r>
       <r>    6.7115    0.0000 </r>
       <r>    6.7515    0.0000 </r>
       <r>    6.7603    0.0000 </r>
       <r>    6.7943    0.0000 </r>
       <r>    6.8002    0.0000 </r>
       <r>    6.8111    0.0000 </r>
       <r>    6.8360    0.0000 </r>
       <r>    6.8415    0.0000 </r>
       <r>    6.8620    0.0000 </r>
       <r>    6.8976    0.0000 </r>
       <r>    6.9097    0.0000 </r>
       <r>    6.9316    0.0000 </r>
       <r>    6.9473    0.0000 </r>
       <r>    6.9706    0.0000 </r>
       <r>    7.0064    0.0000 </r>
       <r>    7.0237    0.0000 </r>
       <r>    7.0543    0.0000 </r>
       <r>    7.1532    0.0000 </r>
       <r>    7.4424    0.0000 </r>
       <r>    7.4553    0.0000 </r>
       <r>    7.4560    0.0000 </r>
       <r>    7.5225    0.0000 </r>
       <r>    7.5841    0.0000 </r>
       <r>    7.6192    0.0000 </r>
       <r>    7.8002    0.0000 </r>
       <r>    7.8427    0.0000 </r>
       <r>    7.8692    0.0000 </r>
       <r>    7.8914    0.0000 </r>
       <r>    7.9446    0.0000 </r>
       <r>    7.9780    0.0000 </r>
       <r>    8.0459    0.0000 </r>
       <r>    8.0988    0.0000 </r>
       <r>    8.1493    0.0000 </r>
       <r>    8.2253    0.0000 </r>
       <r>    8.2407    0.0000 </r>
       <r>    8.2802    0.0000 </r>
       <r>    8.3612    0.0000 </r>
       <r>    8.3995    0.0000 </r>
       <r>    8.4333    0.0000 </r>
       <r>    8.4676    0.0000 </r>
       <r>    8.5009    0.0000 </r>
       <r>    8.5123    0.0000 </r>
       <r>    8.5649    0.0000 </r>
       <r>    8.5805    0.0000 </r>
       <r>    8.5941    0.0000 </r>
       <r>    8.6340    0.0000 </r>
       <r>    8.6718    0.0000 </r>
       <r>    8.7532    0.0000 </r>
       <r>   10.7573    0.0000 </r>
       <r>   10.7875    0.0000 </r>
       <r>   10.8157    0.0000 </r>
       <r>   10.8282    0.0000 </r>
       <r>   10.8607    0.0000 </r>
       <r>   10.9638    0.0000 </r>
       <r>   10.9936    0.0000 </r>
       <r>   11.1042    0.0000 </r>
      </set>
     </set>
    </set>
   </array>
  </eigenvalues>
  <separator name="orbital magnetization" >
   <v name="MAGDIPOLOUT">      0.00000000      0.00000000      0.00000000</v>
  </separator>
 </calculation>
 <structure name="finalpos" >
  <crystal>
   <varray name="basis" >
    <v>       5.11500951      -2.95157165       9.16636543 </v>
    <v>       0.00255656       5.90449950       9.16538071 </v>
    <v>      -5.11207529      -2.95282962       9.16432652 </v>
   </varray>
   <i name="volume">    830.18175776 </i>
   <varray name="rec_basis" >
    <v>       0.09777927      -0.05646660       0.03634951 </v>
    <v>      -0.00002114       0.11290873       0.03636843 </v>
    <v>      -0.09777989      -0.05644255       0.03638856 </v>
   </varray>
  </crystal>
  <varray name="positions" >
   <v>       0.13863284       0.13955869       0.14001280 </v>
   <v>       0.39145724       0.39015931       0.39097050 </v>
   <v>       0.14041183       0.14049174       0.64103530 </v>
   <v>       0.39168763       0.39095432       0.89071275 </v>
   <v>       0.14021124       0.63934960       0.14007474 </v>
   <v>       0.39017996       0.89031359       0.39051208 </v>
   <v>       0.14039659       0.63882865       0.63958504 </v>
   <v>       0.39079300       0.89132107       0.89027336 </v>
   <v>       0.63987081       0.14090553       0.13873228 </v>
   <v>       0.89092202       0.39202355       0.39125949 </v>
   <v>       0.64054865       0.13994211       0.63921578 </v>
   <v>       0.89114648       0.39184938       0.89008144 </v>
   <v>       0.64003104       0.64064939       0.14025195 </v>
   <v>       0.88967848       0.89030803       0.39160709 </v>
   <v>       0.64104145       0.64023620       0.64149469 </v>
   <v>       0.89103352       0.89085218       0.89142376 </v>
   <v>       0.99956081       0.00147077       0.99672389 </v>
   <v>       0.99932420      -0.00000654       0.49764181 </v>
   <v>       0.25162494       0.24888074       0.74956995 </v>
   <v>       0.99746624       0.49792435       0.00079741 </v>
   <v>       0.00046170       0.49713281       0.50085283 </v>
   <v>       0.49987874       0.99732295       0.00081951 </v>
   <v>       0.49953549       0.50001747       0.99779830 </v>
   <v>       0.75099577       0.74934633       0.24978749 </v>
   <v>       0.49979997       0.50125482       0.49655708 </v>
   <v>       0.74940476       0.75084802       0.74802192 </v>
   <v>       0.05527703       0.18232813       0.36028886 </v>
   <v>       0.36017941       0.05532852       0.18238915 </v>
   <v>       0.18176860       0.36021135       0.05539088 </v>
   <v>       0.43274404       0.30494804       0.10978119 </v>
   <v>       0.10906692       0.43312302       0.30494364 </v>
   <v>       0.30521274       0.11004251       0.43257248 </v>
   <v>       0.05458075       0.18266964       0.86005599 </v>
   <v>       0.35914538       0.05555874       0.68308381 </v>
   <v>       0.18265851       0.36037874       0.55474373 </v>
   <v>       0.43280451       0.30443287       0.61067406 </v>
   <v>       0.11035858       0.43179949       0.80463150 </v>
   <v>       0.30436307       0.11040434       0.93295263 </v>
   <v>       0.05510749       0.68185778       0.36050653 </v>
   <v>       0.36034310       0.55520735       0.18192091 </v>
   <v>       0.18153316       0.86054132       0.05533506 </v>
   <v>       0.43207081       0.80579245       0.10955395 </v>
   <v>       0.10985064       0.93228177       0.30560636 </v>
   <v>       0.30549069       0.60937772       0.43247283 </v>
   <v>       0.05544456       0.68099541       0.86041184 </v>
   <v>       0.36052323       0.55522793       0.68153861 </v>
   <v>       0.18161141       0.86040086       0.55531004 </v>
   <v>       0.43219824       0.80536449       0.60967324 </v>
   <v>       0.10952244       0.93195764       0.80564163 </v>
   <v>       0.30505549       0.60945598       0.93267356 </v>
   <v>       0.55574242       0.18197232       0.36016596 </v>
   <v>       0.86071609       0.05492546       0.18175951 </v>
   <v>       0.68206880       0.36041889       0.05509328 </v>
   <v>       0.93200737       0.30556035       0.10948978 </v>
   <v>       0.60984662       0.43248855       0.30545137 </v>
   <v>       0.80572432       0.10946992       0.43247970 </v>
   <v>       0.55532989       0.18127203       0.86052954 </v>
   <v>       0.86031375       0.05504476       0.68170272 </v>
   <v>       0.68170018       0.36047978       0.55530308 </v>
   <v>       0.93237725       0.30538384       0.60953980 </v>
   <v>       0.60977869       0.43219157       0.80540923 </v>
   <v>       0.80538185       0.10910977       0.93252994 </v>
   <v>       0.55476684       0.68287036       0.35977915 </v>
   <v>       0.85979226       0.55548202       0.18160074 </v>
   <v>       0.68215041       0.86015087       0.05492737 </v>
   <v>       0.93243449       0.80417288       0.11054683 </v>
   <v>       0.61033328       0.93271112       0.30456193 </v>
   <v>       0.80420950       0.61047207       0.43222418 </v>
   <v>       0.55470475       0.68196123       0.86057685 </v>
   <v>       0.86024745       0.55499518       0.68163704 </v>
   <v>       0.68209313       0.85948278       0.55566188 </v>
   <v>       0.93246290       0.80453546       0.61053182 </v>
   <v>       0.60994803       0.93237371       0.80489956 </v>
   <v>       0.80496868       0.61054491       0.93123878 </v>
   <v>       0.24863152       0.24987748       0.24760902 </v>
   <v>       0.24803936       0.74804670       0.24846330 </v>
   <v>       0.24745762       0.74745547       0.74935373 </v>
   <v>       0.74726340       0.24774302       0.24920037 </v>
   <v>       0.49685148       0.99758370       0.50012127 </v>
   <v>       0.74830668       0.24829065       0.74830097 </v>
  </varray>
 </structure>
</modeling>
