Li(NbTa)O_3                             
           1
     5.116405   -2.952373    9.160701
     0.002457    5.906322    9.159844
    -5.113815   -2.953714    9.158830
   Li   Nb   O    Ta
  16  10  48   6
Li(NbTa)O_3                             
           1
     5.116405   -2.952373    9.160701
     0.002457    5.906322    9.159844
    -5.113815   -2.953714    9.158830
   Li   Nb   O    Ta
  16  10  48   6
Direct configuration=     1
   0.13834752  0.13936271  0.13984335
   0.39146324  0.38999630  0.39085144
   0.14028321  0.14032414  0.64092124
   0.39173469  0.39088444  0.89059988
   0.14005761  0.63914415  0.13990376
   0.38998511  0.89022976  0.39046082
   0.14027342  0.63856692  0.63942290
   0.39066873  0.89122478  0.89017412
   0.63968950  0.14081636  0.13851063
   0.89081879  0.39199278  0.39127564
   0.64044608  0.13979598  0.63895884
   0.89104424  0.39188824  0.88993991
   0.63987068  0.64050964  0.14005521
   0.88952244  0.89019616  0.39154151
   0.64095434  0.64008558  0.64144699
   0.89103108  0.89076076  0.89134632
   0.99959237  0.00150112  0.99675172
   0.99938324  0.00003493  0.49763958
   0.25168038  0.24891337  0.74959517
   0.99749990  0.49794372  0.00086033
   0.00052440  0.49715140  0.50088067
   0.49988249  0.99738472  0.00090131
   0.49954620  0.50003968  0.99785757
   0.75097315  0.74942469  0.24984287
   0.49985523  0.50129758  0.49655071
   0.74940214  0.75095878  0.74802348
   0.05623360  0.18120304  0.36059596
   0.36055215  0.05618073  0.18135900
   0.18067803  0.36043515  0.05635112
   0.43164615  0.30579781  0.11007695
   0.10933811  0.43208088  0.30572184
   0.30616879  0.11038237  0.43144631
   0.05540035  0.18155956  0.86034038
   0.35943918  0.05639020  0.68203455
   0.18159346  0.36067916  0.55556672
   0.43176800  0.30520898  0.61104129
   0.11066152  0.43074915  0.80539644
   0.30515946  0.11079423  0.93190663
   0.05604537  0.68076856  0.36081137
   0.36061507  0.55618152  0.18081868
   0.18040413  0.86090372  0.05629587
   0.43096027  0.80670950  0.10983535
   0.11018018  0.93120277  0.30647725
   0.30631393  0.60963452  0.43142758
   0.05642617  0.67983109  0.86072292
   0.36082901  0.55621291  0.68039936
   0.18050111  0.86073339  0.55625759
   0.43105925  0.80638098  0.60992686
   0.10974163  0.93076687  0.80662904
   0.30592914  0.60973059  0.93157562
   0.55668960  0.18089021  0.36049958
   0.86099568  0.05588109  0.18065345
   0.68094161  0.36072792  0.05606070
   0.93094987  0.30643726  0.10970186
   0.61015919  0.43137998  0.30635721
   0.80662739  0.10979363  0.43135599
   0.55625493  0.18016866  0.86082204
   0.86060460  0.05601788  0.68054061
   0.68056339  0.36084158  0.55626059
   0.93128773  0.30623948  0.60979445
   0.61008613  0.43101265  0.80636497
   0.80623116  0.10929440  0.93147945
   0.55554077  0.68183433  0.36007734
   0.86007458  0.55634829  0.18046819
   0.68107200  0.86046774  0.05575260
   0.93136114  0.80492582  0.11095065
   0.61067752  0.93165297  0.30547765
   0.80503784  0.61074302  0.43111591
   0.55556968  0.68082022  0.86090541
   0.86059508  0.55581627  0.68050717
   0.68097931  0.85972506  0.55655493
   0.93138973  0.80539064  0.61084254
   0.61024363  0.93134011  0.80571432
   0.80584636  0.61083297  0.93009391
   0.24862253  0.24992729  0.24762435
   0.24806756  0.74806531  0.24849505
   0.24752603  0.74745881  0.74934160
   0.74730972  0.24776208  0.24918815
   0.49682629  0.99767190  0.50015434
   0.74834988  0.24827406  0.74832874
Li(NbTa)O_3                             
           1
     5.116838   -2.952577    9.159252
     0.002483    5.906804    9.158404
    -5.114210   -2.953927    9.157356
   Li   Nb   O    Ta
  16  10  48   6
Direct configuration=     2
   0.13835299  0.13936685  0.13984614
   0.39146170  0.39000052  0.39085318
   0.14028475  0.14032691  0.64092362
   0.39173207  0.39088618  0.89060181
   0.14006080  0.63914817  0.13990680
   0.38998903  0.89023086  0.39046144
   0.14027513  0.63857313  0.63942560
   0.39067107  0.89122624  0.89017559
   0.63969301  0.14081809  0.13851472
   0.89082071  0.39199232  0.39127448
   0.64044844  0.13979856  0.63896380
   0.89104596  0.39188598  0.88994288
   0.63987316  0.64051168  0.14005926
   0.88952477  0.89019812  0.39154250
   0.64095536  0.64008866  0.64144735
   0.89103020  0.89076258  0.89134689
   0.99955248  0.00144102  0.99673676
   0.99934582 -0.00000768  0.49761521
   0.25162541  0.24887836  0.74955686
   0.99747856  0.49791440  0.00080396
   0.00047643  0.49713439  0.50082478
   0.49983404  0.99736463  0.00085379
   0.49950687  0.49999122  0.99783632
   0.75091709  0.74939208  0.24979828
   0.49981453  0.50124355  0.49653670
   0.74936240  0.75090889  0.74799400
   0.05616359  0.18140253  0.36049070
   0.36044680  0.05611239  0.18155139
   0.18086504  0.36034142  0.05626934
   0.43187345  0.30575646  0.10994516
   0.10920248  0.43230595  0.30568508
   0.30609222  0.11027858  0.43164780
   0.05536446  0.18178419  0.86020649
   0.35930647  0.05634909  0.68225856
   0.18181667  0.36054551  0.55552653
   0.43198755  0.30517485  0.61090466
   0.11053483  0.43095941  0.80535463
   0.30511548  0.11066288  0.93212400
   0.05596025  0.68095462  0.36071637
   0.36051956  0.55609910  0.18100604
   0.18059085  0.86080249  0.05621977
   0.43117269  0.80665827  0.10971388
   0.11005843  0.93141500  0.30642691
   0.30626698  0.60951267  0.43164124
   0.05634548  0.68001309  0.86062785
   0.36073370  0.55612943  0.68058702
   0.18069010  0.86063163  0.55618399
   0.43125925  0.80629690  0.60982604
   0.10961960  0.93098809  0.80657586
   0.30588832  0.60960132  0.93179444
   0.55660990  0.18108530  0.36039866
   0.86089757  0.05579851  0.18084463
   0.68113166  0.36062887  0.05598284
   0.93115694  0.30638243  0.10958573
   0.61003960  0.43159305  0.30630343
   0.80657711  0.10966964  0.43157076
   0.55617890  0.18035825  0.86072173
   0.86050477  0.05593953  0.68073525
   0.68074806  0.36074212  0.55618597
   0.93150271  0.30619137  0.60967152
   0.60996357  0.43123368  0.80631205
   0.80618209  0.10917563  0.93169304
   0.55550407  0.68205188  0.35994678
   0.85994626  0.55631022  0.18068040
   0.68129141  0.86033495  0.05571448
   0.93158521  0.80489322  0.11080931
   0.61056913  0.93185240  0.30540431
   0.80499941  0.61060550  0.43134517
   0.55553203  0.68103803  0.86077409
   0.86046268  0.55577818  0.68072334
   0.68119764  0.85960252  0.55650262
   0.93160431  0.80534583  0.61071449
   0.61011820  0.93154625  0.80567249
   0.80579785  0.61071561  0.93029614
   0.24859399  0.24987644  0.24760313
   0.24803688  0.74803499  0.24846653
   0.24749937  0.74743101  0.74930550
   0.74728613  0.24773344  0.24915783
   0.49681029  0.99764587  0.50010654
   0.74832049  0.24824167  0.74829917
Li(NbTa)O_3                             
           1
     5.117426   -2.952918    9.157140
     0.002463    5.907477    9.156301
    -5.114811   -2.954252    9.155258
   Li   Nb   O    Ta
  16  10  48   6
Direct configuration=     3
   0.13836976  0.13937985  0.13985197
   0.39145454  0.39001291  0.39086159
   0.14028717  0.14033856  0.64093423
   0.39172415  0.39089065  0.89060713
   0.14006709  0.63916063  0.13991443
   0.39000210  0.89022977  0.39046112
   0.14027736  0.63859033  0.63943406
   0.39067986  0.89122981  0.89017904
   0.63970580  0.14082178  0.13852361
   0.89082496  0.39199549  0.39126755
   0.64045313  0.13980449  0.63898004
   0.89105241  0.39187988  0.88994724
   0.63988462  0.64051969  0.14006924
   0.88953320  0.89020166  0.39154624
   0.64096204  0.64009502  0.64144883
   0.89102612  0.89076463  0.89135154
   0.99949797  0.00137672  0.99668762
   0.99928061 -0.00008241  0.49758502
   0.25154343  0.24883778  0.74950144
   0.99741663  0.49788179  0.00073217
   0.00039913  0.49709382  0.50077467
   0.49978992  0.99730879  0.00077218
   0.49945967  0.49994567  0.99777098
   0.75087181  0.74931184  0.24972697
   0.49975870  0.50118058  0.49649372
   0.74931244  0.75082764  0.74796058
   0.05597832  0.18180030  0.36031335
   0.36025977  0.05593596  0.18194410
   0.18126137  0.36017556  0.05605441
   0.43228489  0.30560884  0.10975139
   0.10900669  0.43270649  0.30554422
   0.30587991  0.11010785  0.43205225
   0.05523764  0.18219422  0.86000350
   0.35911104  0.05619679  0.68266499
   0.18222664  0.36034149  0.55538839
   0.43238997  0.30505080  0.61069015
   0.11033421  0.43135649  0.80522016
   0.30497370  0.11045910  0.93252485
   0.05574894  0.68133918  0.36055183
   0.36034602  0.55589355  0.18139938
   0.18097565  0.86062073  0.05602598
   0.43156622  0.80648657  0.10953265
   0.10987569  0.93181135  0.30625592
   0.30610959  0.60932669  0.43203822
   0.05614568  0.68039786  0.86045491
   0.36056259  0.55591638  0.68098548
   0.18107984  0.86045422  0.55599266
   0.43164971  0.80607535  0.60966508
   0.10943991  0.93140240  0.80639796
   0.30573903  0.60940689  0.93219539
   0.55639821  0.18147307  0.36023216
   0.86072469  0.05559354  0.18123788
   0.68152527  0.36045243  0.05578896
   0.93154750  0.30620390  0.10941607
   0.60986220  0.43199081  0.30612755
   0.80640975  0.10948080  0.43196766
   0.55598487  0.18074821  0.86054839
   0.86033157  0.05574063  0.68113826
   0.68113343  0.36056561  0.55599383
   0.93190193  0.30602617  0.60949104
   0.60977737  0.43164112  0.80613905
   0.80601557  0.10899759  0.93209501
   0.55537956  0.68245527  0.35974014
   0.85974030  0.55617948  0.18108276
   0.68169134  0.86013129  0.05558363
   0.93198925  0.80477512  0.11059012
   0.61038276  0.93224768  0.30521563
   0.80486140  0.61039735  0.43176191
   0.55539884  0.68144973  0.86056510
   0.86025397  0.55564940  0.68112617
   0.68160217  0.85942531  0.55632871
   0.93200959  0.80519987  0.61051108
   0.60991773  0.93193761  0.80553139
   0.80564884  0.61052583  0.93069007
   0.24854544  0.24984401  0.24755647
   0.24800418  0.74799755  0.24843487
   0.24744801  0.74738857  0.74928361
   0.74726904  0.24770562  0.24911328
   0.49679920  0.99759448  0.50006924
   0.74828357  0.24820751  0.74826391
Li(NbTa)O_3                             
           1
     5.117366   -2.952908    9.157361
     0.002451    5.907399    9.156510
    -5.114742   -2.954222    9.155480
   Li   Nb   O    Ta
  16  10  48   6
Direct configuration=     4
   0.13838177  0.13938677  0.13985526
   0.39144987  0.39001850  0.39086660
   0.14029007  0.14034519  0.64093883
   0.39171949  0.39089100  0.89061000
   0.14006926  0.63916853  0.13991995
   0.39000955  0.89023058  0.39045997
   0.14027905  0.63859929  0.63943962
   0.39068303  0.89123225  0.89018189
   0.63971223  0.14082183  0.13853099
   0.89082698  0.39199685  0.39126371
   0.64045431  0.13980874  0.63899055
   0.89105599  0.39187534  0.88994903
   0.63989105  0.64052547  0.14007523
   0.88953856  0.89020276  0.39154655
   0.64096585  0.64009875  0.64144787
   0.89102259  0.89076527  0.89135495
   0.99950159  0.00138860  0.99668440
   0.99928307 -0.00008219  0.49759140
   0.25155058  0.24884457  0.74950565
   0.99741330  0.49788585  0.00073730
   0.00040235  0.49709130  0.50078650
   0.49979862  0.99730674  0.00077635
   0.49946554  0.49995427  0.99776716
   0.75088875  0.74930879  0.24972986
   0.49976172  0.50119286  0.49649203
   0.74932031  0.75082848  0.74796350
   0.05588244  0.18189745  0.36030045
   0.36024637  0.05584802  0.18203095
   0.18135538  0.36016849  0.05595739
   0.43237020  0.30552733  0.10974289
   0.10899809  0.43279329  0.30546323
   0.30578028  0.11010005  0.43214826
   0.05515915  0.18227930  0.85999458
   0.35910657  0.05610638  0.68275154
   0.18230390  0.36033615  0.55530841
   0.43246321  0.30497395  0.61068036
   0.11031529  0.43144716  0.80514486
   0.30489604  0.11044857  0.93260136
   0.05565832  0.68143782  0.36053673
   0.36033107  0.55580244  0.18149920
   0.18107795  0.86059839  0.05593838
   0.43165678  0.80639152  0.10952474
   0.10986769  0.93190321  0.30616160
   0.30602236  0.60931811  0.43212715
   0.05605244  0.68050501  0.86043470
   0.36054425  0.55582273  0.68108898
   0.18118133  0.86043067  0.55590710
   0.43174658  0.80597130  0.60965897
   0.10943748  0.93149611  0.80629912
   0.30565253  0.60939570  0.93228667
   0.55629940  0.18157365  0.36022177
   0.86070681  0.05550356  0.18133978
   0.68162662  0.36043506  0.05569809
   0.93164315  0.30611164  0.10940841
   0.60985536  0.43208631  0.30603025
   0.80631621  0.10946988  0.43206092
   0.55589588  0.18084993  0.86053119
   0.86031423  0.05565177  0.68124337
   0.68123794  0.36054315  0.55590522
   0.93199311  0.30593525  0.60948544
   0.60976967  0.43173391  0.80604318
   0.80592340  0.10899729  0.93218230
   0.55530420  0.68253659  0.35972906
   0.85972879  0.55609718  0.18117425
   0.68177849  0.86012085  0.05550161
   0.93206975  0.80470122  0.11057638
   0.61037034  0.93233373  0.30512998
   0.80478416  0.61038713  0.43184514
   0.55532039  0.68154588  0.86054648
   0.86023637  0.55557590  0.68121931
   0.68170297  0.85941524  0.55624000
   0.93208930  0.80511584  0.61049962
   0.60990834  0.93201691  0.80545114
   0.80556631  0.61051055  0.93078527
   0.24855395  0.24985020  0.24755698
   0.24800467  0.74800164  0.24844121
   0.24744886  0.74738989  0.74929496
   0.74727564  0.24770680  0.24911554
   0.49680358  0.99759696  0.50007412
   0.74828616  0.24820853  0.74827068
Li(NbTa)O_3                             
           1
     5.117029   -2.952727    9.158668
     0.002462    5.906964    9.157786
    -5.114357   -2.954028    9.156764
   Li   Nb   O    Ta
  16  10  48   6
Direct configuration=     5
   0.13841725  0.13940729  0.13986553
   0.39143741  0.39003551  0.39087997
   0.14029941  0.14036390  0.64095127
   0.39170657  0.39089209  0.89061777
   0.14007648  0.63919192  0.13993736
   0.39003130  0.89023349  0.39045818
   0.14028491  0.63862538  0.63945713
   0.39069254  0.89123884  0.89019138
   0.63973097  0.14082196  0.13855400
   0.89083335  0.39199960  0.39125411
   0.64045813  0.13982194  0.63902164
   0.89106600  0.39186359  0.88995503
   0.63990961  0.64054236  0.14009262
   0.88955431  0.89020604  0.39154746
   0.64097678  0.64011057  0.64144480
   0.89101345  0.89076726  0.89136421
   0.99952482  0.00142349  0.99669234
   0.99930239 -0.00006702  0.49761807
   0.25157625  0.24887310  0.74952989
   0.99741888  0.49790836  0.00075639
   0.00041760  0.49710156  0.50082385
   0.49983468  0.99731063  0.00079454
   0.49949230  0.49998915  0.99777075
   0.75093881  0.74931556  0.24975154
   0.49978318  0.50122963  0.49650317
   0.74934696  0.75083986  0.74798211
   0.05563028  0.18211209  0.36029452
   0.36023467  0.05562148  0.18222198
   0.18156998  0.36017139  0.05571143
   0.43255595  0.30531503  0.10974629
   0.10900860  0.43298209  0.30524703
   0.30552741  0.11009896  0.43236463
   0.05494831  0.18246613  0.85999970
   0.35912044  0.05587084  0.68293897
   0.18247391  0.36034619  0.55509405
   0.43262164  0.30477227  0.61067809
   0.11029924  0.43164519  0.80494209
   0.30468273  0.11044654  0.93277433
   0.05541834  0.68166038  0.36052652
   0.36032092  0.55555991  0.18172354
   0.18130463  0.86056764  0.05570307
   0.43186464  0.80614117  0.10952708
   0.10987012  0.93211227  0.30591582
   0.30579361  0.60932214  0.43232738
   0.05580352  0.68075035  0.86041511
   0.36052507  0.55557460  0.68132020
   0.18140135  0.86040276  0.55567730
   0.43197325  0.80570868  0.60966364
   0.10945107  0.93171859  0.80603945
   0.30542475  0.60939329  0.93249643
   0.55604414  0.18180265  0.36021703
   0.86069092  0.05526649  0.18156693
   0.68185925  0.36041786  0.05545316
   0.93186130  0.30586912  0.10941357
   0.60986176  0.43229674  0.30578111
   0.80606983  0.10946417  0.43227475
   0.55566245  0.18107683  0.86051635
   0.86030070  0.05541126  0.68147879
   0.68146627  0.36051715  0.55567089
   0.93220512  0.30569350  0.60949682
   0.60977358  0.43195200  0.80579248
   0.80568820  0.10901763  0.93238050
   0.55510116  0.68270981  0.35973145
   0.85972688  0.55587479  0.18138045
   0.68196938  0.86012366  0.05527909
   0.93224839  0.80450681  0.11056230
   0.61036128  0.93252068  0.30491144
   0.80458008  0.61038748  0.43202786
   0.55510197  0.68175841  0.86053107
   0.86022548  0.55536890  0.68142299
   0.68192022  0.85942503  0.55600261
   0.93227068  0.80489729  0.61049184
   0.60990559  0.93219438  0.80524226
   0.80534718  0.61049448  0.93100394
   0.24857771  0.24987512  0.24756711
   0.24801092  0.74801572  0.24846223
   0.24745809  0.74740054  0.74932366
   0.74729211  0.24772032  0.24912963
   0.49682917  0.99760026  0.50009044
   0.74829658  0.24822289  0.74828790
Li(NbTa)O_3                             
           1
     5.116631   -2.952489    9.160243
     0.002504    5.906454    9.159328
    -5.113885   -2.953795    9.158296
   Li   Nb   O    Ta
  16  10  48   6
Direct configuration=     6
   0.13844578  0.13942394  0.13987530
   0.39142947  0.39004942  0.39089018
   0.14030890  0.14037843  0.64096039
   0.39169752  0.39089348  0.89062483
   0.14008422  0.63921054  0.13995251
   0.39004855  0.89023737  0.39045836
   0.14029116  0.63864651  0.63947172
   0.39070051  0.89124483  0.89019985
   0.63974585  0.14082351  0.13857347
   0.89083976  0.39200078  0.39124822
   0.64046219  0.13983318  0.63904608
   0.89107421  0.39185519  0.88996175
   0.63992406  0.64055552  0.14010723
   0.88956722  0.89021049  0.39154877
   0.64098508  0.64012098  0.64144331
   0.89100802  0.89077036  0.89137115
   0.99954725  0.00145169  0.99670722
   0.99931996 -0.00004356  0.49763753
   0.25159855  0.24889371  0.74955353
   0.99743427  0.49792674  0.00077637
   0.00043687  0.49711552  0.50085055
   0.49986242  0.99731987  0.00081316
   0.49951752  0.50001513  0.99778510
   0.75097681  0.74932992  0.24977191
   0.49980301  0.50125454  0.49651974
   0.74937096  0.75085436  0.74800112
   0.05546869  0.18222486  0.36030679
   0.36024000  0.05547861  0.18232184
   0.18168607  0.36019150  0.05555254
   0.43265230  0.30517469  0.10976600
   0.10903392  0.43307803  0.30510380
   0.30537202  0.11010771  0.43248183
   0.05480075  0.18256410  0.86002533
   0.35914939  0.05572000  0.68303189
   0.18256263  0.36036778  0.55495512
   0.43271053  0.30463845  0.61068840
   0.11030816  0.43174823  0.80480758
   0.30454212  0.11045878  0.93286817
   0.05526256  0.68178023  0.36053877
   0.36033796  0.55539850  0.18183859
   0.18142303  0.86056888  0.05554711
   0.43197713  0.80598134  0.10954449
   0.10988495  0.93222508  0.30575903
   0.30564376  0.60934208  0.43243494
   0.05563892  0.68088575  0.86042090
   0.36053287  0.55541227  0.68144672
   0.18152026  0.86040484  0.55552242
   0.43210272  0.80554108  0.60967914
   0.10947821  0.93183748  0.80587173
   0.30527389  0.60941208  0.93260604
   0.55588072  0.18192678  0.36022751
   0.86070141  0.05511114  0.18168619
   0.68198263  0.36042796  0.05529083
   0.93197756  0.30571321  0.10943484
   0.60988072  0.43241023  0.30562026
   0.80591011  0.10947594  0.43239417
   0.55551164  0.18119359  0.86052647
   0.86031301  0.05524791  0.68160594
   0.68158774  0.36052070  0.55551291
   0.93231528  0.30553694  0.60952450
   0.60979187  0.43207471  0.80562873
   0.80554077  0.10904768  0.93248533
   0.55495960  0.68280280  0.35975342
   0.85974566  0.55572448  0.18148974
   0.68206853  0.86014624  0.05513047
   0.93234220  0.80437636  0.11056903
   0.61036858  0.93261936  0.30477068
   0.80444189  0.61040654  0.43212433
   0.55495264  0.68186903  0.86054416
   0.86023597  0.55522723  0.68153283
   0.68203431  0.85945178  0.55584488
   0.93236695  0.80475452  0.61050232
   0.60992321  0.93228672  0.80510249
   0.80519906  0.61050387  0.93112135
   0.24859524  0.24989423  0.24758113
   0.24802077  0.74802760  0.24847832
   0.24746925  0.74741458  0.74934403
   0.74730112  0.24773167  0.24915014
   0.49684561  0.99760818  0.50010654
   0.74830817  0.24824123  0.74830236
Li(NbTa)O_3                             
           1
     5.116020   -2.952127    9.162615
     0.002548    5.905700    9.161665
    -5.113173   -2.953425    9.160613
   Li   Nb   O    Ta
  16  10  48   6
Direct configuration=     7
   0.13848415  0.13944713  0.13989047
   0.39142170  0.39006885  0.39090385
   0.14032386  0.14039766  0.64097229
   0.39168730  0.39089702  0.89063555
   0.14009750  0.63923603  0.13997320
   0.39007223  0.89024458  0.39046040
   0.14030130  0.63867656  0.63949175
   0.39071254  0.89125403  0.89021175
   0.63976603  0.14082819  0.13860044
   0.89084976  0.39200229  0.39124207
   0.64046911  0.13984936  0.63907864
   0.89108557  0.39184580  0.88997344
   0.63994349  0.64057326  0.14012793
   0.88958488  0.89021932  0.39155223
   0.64099576  0.64013695  0.64144287
   0.89100316  0.89077714  0.89137993
   0.99957206  0.00148338  0.99672795
   0.99934040 -0.00001307  0.49765864
   0.25162654  0.24891488  0.74958122
   0.99745835  0.49794728  0.00080068
   0.00046058  0.49713565  0.50087918
   0.49989271  0.99733291  0.00083596
   0.49954957  0.50004177  0.99780399
   0.75101495  0.74935227  0.24979644
   0.49982414  0.50128143  0.49654293
   0.74940150  0.75087303  0.74802294
   0.05529178  0.18234010  0.36032530
   0.36024869  0.05532310  0.18242273
   0.18180088  0.36022061  0.05538054
   0.43274575  0.30501290  0.10979781
   0.10906941  0.43316905  0.30494837
   0.30520553  0.11012430  0.43259451
   0.05463590  0.18266749  0.86005775
   0.35918374  0.05555875  0.68312452
   0.18265042  0.36039522  0.55480547
   0.43280084  0.30449032  0.61070491
   0.11032844  0.43184555  0.80465876
   0.30438812  0.11047500  0.93296133
   0.05509360  0.68189727  0.36055832
   0.36036261  0.55522287  0.18195473
   0.18154114  0.86057633  0.05537443
   0.43208758  0.80580693  0.10957319
   0.10990630  0.93233240  0.30559006
   0.30548214  0.60937484  0.43253573
   0.05545873  0.68102236  0.86043519
   0.36054767  0.55523599  0.68157093
   0.18163860  0.86041353  0.55535151
   0.43223098  0.80536538  0.60970072
   0.10951383  0.93195476  0.80569060
   0.30510378  0.60944481  0.93271235
   0.55570670  0.18204887  0.36024163
   0.86071965  0.05494219  0.18180313
   0.68210473  0.36044451  0.05511062
   0.93209041  0.30554393  0.10946870
   0.60990872  0.43252038  0.30544642
   0.80573709  0.10949661  0.43251016
   0.55534334  0.18130892  0.86054630
   0.86033617  0.05506550  0.68173405
   0.68171216  0.36052933  0.55533825
   0.93242222  0.30537103  0.60956018
   0.60981918  0.43219737  0.80544691
   0.80538014  0.10908992  0.93258594
   0.55480203  0.68289719  0.35978500
   0.85977451  0.55555639  0.18159947
   0.68217005  0.86017733  0.05496300
   0.93243843  0.80422871  0.11058074
   0.61038198  0.93271824  0.30461358
   0.80428742  0.61043470  0.43222414
   0.55478421  0.68197665  0.86056943
   0.86025851  0.55505923  0.68164382
   0.68214346  0.85949267  0.55566729
   0.93246867  0.80459241  0.61052286
   0.60994863  0.93238193  0.80494685
   0.80502909  0.61052533  0.93124200
   0.24861902  0.24991121  0.24759755
   0.24803604  0.74804266  0.24849597
   0.24748533  0.74743197  0.74936589
   0.74730891  0.24774536  0.24918062
   0.49686361  0.99761405  0.50012647
   0.74831921  0.24826985  0.74832091
Li(NbTa)O_3                             
           1
     5.115737   -2.951963    9.163690
     0.002558    5.905358    9.162729
    -5.112856   -2.953253    9.161671
   Li   Nb   O    Ta
  16  10  48   6
Direct configuration=     8
   0.13850015  0.13945744  0.13989903
   0.39142083  0.39007730  0.39091007
   0.14033173  0.14040572  0.64097749
   0.39168457  0.39089995  0.89064160
   0.14010562  0.63924697  0.13998260
   0.39008239  0.89024927  0.39046322
   0.14030727  0.63869054  0.63950071
   0.39071863  0.89125892  0.89021747
   0.63977484  0.14083247  0.13861287
   0.89085541  0.39200298  0.39124126
   0.64047346  0.13985708  0.63909250
   0.89109091  0.39184321  0.88998107
   0.63995188  0.64058063  0.14013800
   0.88959280  0.89022545  0.39155524
   0.64100008  0.64014518  0.64144439
   0.89100341  0.89078229  0.89138338
   0.99957740  0.00149076  0.99673430
   0.99934522 -0.00000325  0.49766339
   0.25163371  0.24891691  0.74958733
   0.99746788  0.49795092  0.00080781
   0.00046851  0.49714151  0.50088298
   0.49989814  0.99733735  0.00084176
   0.49955812  0.50004439  0.99781185
   0.75102085  0.74935942  0.24980310
   0.49982852  0.50128484  0.49655123
   0.74941159  0.75087773  0.74802825
   0.05525395  0.18236223  0.36032986
   0.36025028  0.05529151  0.18243927
   0.18181915  0.36023002  0.05534591
   0.43276065  0.30497227  0.10980916
   0.10908180  0.43318078  0.30491365
   0.30517348  0.11012591  0.43261135
   0.05459492  0.18268759  0.86006881
   0.35919325  0.05552517  0.68313956
   0.18266712  0.36040459  0.55476996
   0.43281997  0.30445508  0.61070778
   0.11033826  0.43185957  0.80462299
   0.30435339  0.11047709  0.93297781
   0.05505984  0.68191439  0.36056331
   0.36037155  0.55518473  0.18197215
   0.18156283  0.86057927  0.05533482
   0.43210451  0.80576859  0.10958386
   0.10991328  0.93234481  0.30555623
   0.30544882  0.60938705  0.43254792
   0.05541869  0.68104422  0.86044336
   0.36055439  0.55519722  0.68159128
   0.18165757  0.86041807  0.55531152
   0.43225121  0.80533006  0.60970769
   0.10952586  0.93197549  0.80565071
   0.30506275  0.60945984  0.93272582
   0.55567534  0.18206476  0.36024325
   0.86072854  0.05490451  0.18181940
   0.68212481  0.36045055  0.05507029
   0.93210247  0.30550816  0.10948396
   0.60991462  0.43253788  0.30541070
   0.80569937  0.10950457  0.43252671
   0.55530562  0.18132553  0.86055511
   0.86034563  0.05502218  0.68175455
   0.68173217  0.36053396  0.55529839
   0.93243499  0.30533747  0.60957290
   0.60982765  0.43221803  0.80540575
   0.80534592  0.10910596  0.93259888
   0.55476375  0.68291415  0.35979665
   0.85978897  0.55551400  0.18161844
   0.68218779  0.86018678  0.05492385
   0.93245669  0.80419305  0.11058364
   0.61038411  0.93273591  0.30457580
   0.80424826  0.61044682  0.43224165
   0.55473942  0.68199441  0.86058227
   0.86026833  0.55501550  0.68166357
   0.68215811  0.85950805  0.55562742
   0.93248707  0.80455262  0.61053146
   0.60995695  0.93240000  0.80490989
   0.80498532  0.61053776  0.93126175
   0.24862604  0.24991128  0.24760407
   0.24803923  0.74804866  0.24849839
   0.24748993  0.74743983  0.74936975
   0.74730772  0.24774847  0.24919182
   0.49686489  0.99761669  0.50013161
   0.74832404  0.24827896  0.74832480
Li(NbTa)O_3                             
           1
     5.115343   -2.951748    9.165193
     0.002569    5.904870    9.164207
    -5.112411   -2.953022    9.163150
   Li   Nb   O    Ta
  16  10  48   6
Direct configuration=     9
   0.13852451  0.13947369  0.13991405
   0.39142156  0.39009084  0.39092008
   0.14034467  0.14041835  0.64098623
   0.39168167  0.39090580  0.89065211
   0.14012017  0.63926408  0.13999742
   0.39009852  0.89025737  0.39046896
   0.14031822  0.63871284  0.63951485
   0.39072925  0.89126705  0.89022694
   0.63978897  0.14084081  0.13863274
   0.89086510  0.39200456  0.39124139
   0.64048159  0.13986959  0.63911421
   0.89109971  0.39184052  0.88999491
   0.63996483  0.64059196  0.14015499
   0.88960542  0.89023653  0.39156128
   0.64100685  0.64015892  0.64144851
   0.89100552  0.89079162  0.89138915
   0.99958184  0.00149532  0.99674072
   0.99934931  0.00000656  0.49766635
   0.25164058  0.24891609  0.74959096
   0.99747901  0.49795175  0.00081423
   0.00047670  0.49714730  0.50088300
   0.49990152  0.99734075  0.00084576
   0.49956556  0.50004355  0.99782034
   0.75102264  0.74936649  0.24980812
   0.49982969  0.50128548  0.49656043
   0.74942029  0.75088124  0.74803315
   0.05521799  0.18238312  0.36033161
   0.36024690  0.05526434  0.18245331
   0.18183532  0.36023877  0.05531612
   0.43277370  0.30493013  0.10981941
   0.10909448  0.43318904  0.30488078
   0.30514696  0.11012056  0.43262598
   0.05455092  0.18271028  0.86007922
   0.35920055  0.05549553  0.68315034
   0.18268509  0.36041264  0.55473297
   0.43283953  0.30441865  0.61070787
   0.11034978  0.43186974  0.80458721
   0.30431884  0.11047400  0.93299534
   0.05503016  0.68192600  0.36056519
   0.36037915  0.55514945  0.18198529
   0.18158228  0.86057915  0.05529601
   0.43211709  0.80573131  0.10959398
   0.10991561  0.93235214  0.30552720
   0.30541880  0.60940007  0.43255350
   0.05538192  0.68106291  0.86044987
   0.36055920  0.55516121  0.68160888
   0.18167323  0.86042307  0.55526996
   0.43226715  0.80529837  0.60971360
   0.10953894  0.93199372  0.80560986
   0.30501915  0.60947819  0.93273465
   0.55565214  0.18207187  0.36023971
   0.86073782  0.05486840  0.18183079
   0.68214096  0.36045528  0.05503088
   0.93210586  0.30547538  0.10950183
   0.60991627  0.43255240  0.30537709
   0.80566595  0.10951001  0.43253938
   0.55526894  0.18133705  0.86056372
   0.86035350  0.05497979  0.68177130
   0.68175246  0.36053370  0.55525824
   0.93244283  0.30530751  0.60958568
   0.60983511  0.43223536  0.80536392
   0.80531416  0.10912418  0.93260596
   0.55472371  0.68293067  0.35980830
   0.85980692  0.55546502  0.18163590
   0.68220628  0.86019367  0.05488398
   0.93247486  0.80415535  0.11058348
   0.61038107  0.93275303  0.30453839
   0.80420379  0.61046157  0.43225929
   0.55468887  0.68201065  0.86059638
   0.86027830  0.55496844  0.68168171
   0.68216509  0.85952500  0.55558951
   0.93250577  0.80451166  0.61054012
   0.60996499  0.93241771  0.80487145
   0.80493845  0.61055271  0.93128003
   0.24863424  0.24990688  0.24761042
   0.24804420  0.74805325  0.24849768
   0.24749243  0.74744937  0.74937183
   0.74730200  0.24775197  0.24920453
   0.49686472  0.99761879  0.50013595
   0.74832706  0.24828988  0.74832790
Li(NbTa)O_3                             
           1
     5.115214   -2.951683    9.165667
     0.002567    5.904712    9.164673
    -5.112275   -2.952951    9.163623
   Li   Nb   O    Ta
  16  10  48   6
Direct configuration=    10
   0.13853497  0.13948140  0.13992213
   0.39142353  0.39009723  0.39092482