 vasp.5.4.4.18Apr17-6-g9f103f2a35 (build Mar 05 2020 17:21:05) complex          
  
 executed on Linux justhpc1_p2018 date 2024.04.10  19:52:04
 running on   72 total cores
 distrk:  each k-point on   72 cores,    1 groups
 distr:  one band on NCORES_PER_BAND=   1 cores,   72 groups


--------------------------------------------------------------------------------------------------------


 INCAR:
 POTCAR:    PAW_PBE Li 17Jan2003                  
 POTCAR:    PAW_PBE Nb_sv 25May2007               
 POTCAR:    PAW_PBE O 08Apr2002                   
 POTCAR:    PAW_PBE Ta 17Jan2003                  

 ----------------------------------------------------------------------------- 
|                                                                             |
|           W    W    AA    RRRRR   N    N  II  N    N   GGGG   !!!           |
|           W    W   A  A   R    R  NN   N  II  NN   N  G    G  !!!           |
|           W    W  A    A  R    R  N N  N  II  N N  N  G       !!!           |
|           W WW W  AAAAAA  RRRRR   N  N N  II  N  N N  G  GGG   !            |
|           WW  WW  A    A  R   R   N   NN  II  N   NN  G    G                |
|           W    W  A    A  R    R  N    N  II  N    N   GGGG   !!!           |
|                                                                             |
|      For optimal performance we recommend to set                            |
|        NCORE= 4 - approx SQRT( number of cores)                             |
|      NCORE specifies how many cores store one orbital (NPAR=cpu/NCORE).     |
|      This setting can  greatly improve the performance of VASP for DFT.     |
|      The default,   NCORE=1            might be grossly inefficient         |
|      on modern multi-core architectures or massively parallel machines.     |
|      Do your own testing !!!!                                               |
|      Unfortunately you need to use the default for GW and RPA calculations. |
|      (for HF NCORE is supported but not extensively tested yet)             |
|                                                                             |
 ----------------------------------------------------------------------------- 

 POTCAR:    PAW_PBE Li 17Jan2003                  
  local pseudopotential read in
  partial core-charges read in
  partial kinetic energy density read in
  atomic valenz-charges read in
  non local Contribution for L=           0  read in
    real space projection operators read in
  non local Contribution for L=           0  read in
    real space projection operators read in
  non local Contribution for L=           1  read in
    real space projection operators read in
    PAW grid and wavefunctions read in
 
   number of l-projection  operators is LMAX  =           3
   number of lm-projection operators is LMMAX =           5
 
 POTCAR:    PAW_PBE Nb_sv 25May2007               
  local pseudopotential read in
  partial core-charges read in
  partial kinetic energy density read in
  atomic valenz-charges read in
  non local Contribution for L=           0  read in
    real space projection operators read in
  non local Contribution for L=           0  read in
    real space projection operators read in
  non local Contribution for L=           1  read in
    real space projection operators read in
  non local Contribution for L=           1  read in
    real space projection operators read in
  non local Contribution for L=           2  read in
    real space projection operators read in
  non local Contribution for L=           2  read in
    real space projection operators read in
    PAW grid and wavefunctions read in
 
   number of l-projection  operators is LMAX  =           6
   number of lm-projection operators is LMMAX =          18
 
 POTCAR:    PAW_PBE O 08Apr2002                   
  local pseudopotential read in
  partial core-charges read in
  partial kinetic energy density read in
  kinetic energy density of atom read in
  atomic valenz-charges read in
  non local Contribution for L=           0  read in
    real space projection operators read in
  non local Contribution for L=           0  read in
    real space projection operators read in
  non local Contribution for L=           1  read in
    real space projection operators read in
  non local Contribution for L=           1  read in
    real space projection operators read in
    PAW grid and wavefunctions read in
 
   number of l-projection  operators is LMAX  =           4
   number of lm-projection operators is LMMAX =           8
 
 POTCAR:    PAW_PBE Ta 17Jan2003                  
  local pseudopotential read in
  partial core-charges read in
  partial kinetic energy density read in
  atomic valenz-charges read in
  non local Contribution for L=           2  read in
    real space projection operators read in
  non local Contribution for L=           2  read in
    real space projection operators read in
  non local Contribution for L=           0  read in
    real space projection operators read in
  non local Contribution for L=           0  read in
    real space projection operators read in
  non local Contribution for L=           1  read in
    real space projection operators read in
  non local Contribution for L=           1  read in
    real space projection operators read in
    PAW grid and wavefunctions read in
 
   number of l-projection  operators is LMAX  =           6
   number of lm-projection operators is LMMAX =          18
 
 Optimization of the real space projectors (new method)

 maximal supplied QI-value         = 18.33
 optimisation between [QCUT,QGAM] = [ 11.00, 22.18] = [ 33.87,137.76] Ry 
 Optimized for a Real-space Cutoff    1.27 Angstroem

   l    n(q)    QCUT    max X(q) W(low)/X(q) W(high)/X(q)  e(spline) 
   0      8    10.998    33.825    0.29E-04    0.16E-03    0.54E-07
   0      8    10.998     8.944    0.19E-04    0.12E-03    0.42E-07
   1      8    10.998     4.214    0.16E-03    0.32E-04    0.49E-07
 Optimization of the real space projectors (new method)

 maximal supplied QI-value         = 15.68
 optimisation between [QCUT,QGAM] = [ 11.14, 22.27] = [ 34.73,138.91] Ry 
 Optimized for a Real-space Cutoff    1.75 Angstroem

   l    n(q)    QCUT    max X(q) W(low)/X(q) W(high)/X(q)  e(spline) 
   0     12    11.136    10.201    0.25E-04    0.67E-06    0.52E-07
   0     12    11.136     8.174    0.39E-04    0.20E-05    0.97E-07
   1     11    11.136     3.488    0.15E-05    0.92E-05    0.13E-06
   1     11    11.136     4.917    0.87E-05    0.65E-04    0.82E-06
   2     11    11.136   153.744    0.20E-03    0.19E-03    0.13E-05
   2     11    11.136   126.342    0.20E-03    0.19E-03    0.13E-05
 Optimization of the real space projectors (new method)

 maximal supplied QI-value         = 24.76
 optimisation between [QCUT,QGAM] = [ 11.14, 22.28] = [ 34.75,139.00] Ry 
 Optimized for a Real-space Cutoff    1.19 Angstroem

   l    n(q)    QCUT    max X(q) W(low)/X(q) W(high)/X(q)  e(spline) 
   0      8    11.140    20.381    0.23E-03    0.52E-03    0.22E-06
   0      8    11.140    15.268    0.24E-03    0.55E-03    0.24E-06
   1      7    11.140     5.964    0.11E-03    0.44E-03    0.26E-06
   1      7    11.140     5.382    0.84E-04    0.37E-03    0.23E-06
 Optimization of the real space projectors (new method)

 maximal supplied QI-value         = 12.85
 optimisation between [QCUT,QGAM] = [ 11.05, 22.23] = [ 34.20,138.39] Ry 
 Optimized for a Real-space Cutoff    1.65 Angstroem

   l    n(q)    QCUT    max X(q) W(low)/X(q) W(high)/X(q)  e(spline) 
   2     10    11.051    62.315    0.21E-03    0.15E-03    0.40E-06
   2     10    11.051    52.185    0.21E-03    0.15E-03    0.40E-06
   0     11    11.051   103.837    0.25E-04    0.82E-06    0.35E-06
   0     11    11.051    59.728    0.19E-04    0.76E-06    0.31E-06
   1     11    11.051    13.958    0.72E-04    0.92E-04    0.65E-06
   1     11    11.051     8.441    0.56E-04    0.61E-04    0.46E-06

 ----------------------------------------------------------------------------- 
|                                                                             |
|  ADVICE TO THIS USER RUNNING 'VASP/VAMP'   (HEAR YOUR MASTER'S VOICE ...):  |
|                                                                             |
|      You enforced a specific xc-type in the INCAR file,                     |
|      a different type was found on the POTCAR file                          |
|          I HOPE YOU KNOW, WHAT YOU ARE  DOING                               |
|                                                                             |
 ----------------------------------------------------------------------------- 

  PAW_PBE Li 17Jan2003                  :
 energy of atom  1       EATOM=   -5.3001
 kinetic energy error for atom=    0.0000 (will be added to EATOM!!)
  PAW_PBE Nb_sv 25May2007               :
 energy of atom  2       EATOM=-1555.1913
 kinetic energy error for atom=    0.0086 (will be added to EATOM!!)
  PAW_PBE O 08Apr2002                   :
 energy of atom  3       EATOM= -432.3788
 kinetic energy error for atom=    0.0273 (will be added to EATOM!!)
  PAW_PBE Ta 17Jan2003                  :
 energy of atom  4       EATOM= -130.6506
 kinetic energy error for atom=    0.0015 (will be added to EATOM!!)
 
 
 POSCAR: Li Nb  O Ta + 1 %                       
  positions in direct lattice
  velocities in cartesian coordinates
 exchange correlation table for  LEXCH =       14
   RHO(1)=    0.500       N(1)  =     2000
   RHO(2)=  100.500       N(2)  =     4000
 


--------------------------------------------------------------------------------------------------------


 ion  position               nearest neighbor table
   1  0.138  0.139  0.140-  38 2.03  43 2.03  54 2.04  27 2.29  29 2.29  28 2.30  75 3.03  18 3.04
                            20 3.05  22 3.08  78 3.37  76 3.38
   2  0.391  0.390  0.391-  51 2.05  35 2.05  40 2.06  55 2.25  44 2.26  36 2.26  25 3.00  78 3.03
                            76 3.05  19 3.05  79 3.39
   3  0.140  0.140  0.641-  32 2.05  60 2.05  49 2.05  33 2.26  34 2.26  35 2.27  17 3.03  19 3.03
                            21 3.04  79 3.04  80 3.39  75 3.40  77 3.40
   4  0.392  0.391  0.891-  57 2.06  46 2.06  29 2.06  61 2.24  50 2.25  30 2.25  23 2.99  80 3.04
                            77 3.04  75 3.04
   5  0.140  0.639  0.140-  31 2.03  50 2.04  66 2.04  40 2.28  39 2.28  41 2.28  76 3.00  23 3.06
                            21 3.07  17 3.08  75 3.36  77 3.37
   6  0.390  0.890  0.390-  63 2.04  28 2.04  47 2.05  48 2.26  32 2.27  67 2.27  79 2.99  77 3.06
                            75 3.06  24 3.07
   7  0.140  0.639  0.639-  44 2.03  37 2.04  72 2.04  46 2.28  45 2.28  47 2.29  77 3.01  25 3.06
                            18 3.08  20 3.08  76 3.37
   8  0.391  0.891  0.890-  34 2.04  69 2.05  41 2.06  73 2.26  42 2.26  38 2.26  22 3.01  19 3.04
                            76 3.05  26 3.05  79 3.37
   9  0.640  0.141  0.139-  30 2.03  62 2.04  67 2.05  53 2.27  52 2.28  51 2.29  78 3.00  23 3.06
                            17 3.06  79 3.08  80 3.37  75 3.37
  10  0.891  0.392  0.391-  59 2.06  64 2.06  27 2.06  68 2.24  31 2.24  60 2.24  21 2.99  24 3.04
                            80 3.04  75 3.05
  11  0.640  0.140  0.639-  56 2.03  36 2.04  73 2.04  58 2.27  59 2.28  57 2.28  80 3.00  18 3.06
                            25 3.08  22 3.08  78 3.37
  12  0.891  0.392  0.890-  70 2.05  33 2.05  53 2.06  74 2.25  37 2.25  54 2.25  20 2.98  26 3.06
                            78 3.06  19 3.07
  13  0.640  0.641  0.140-  42 2.05  55 2.05  74 2.05  64 2.27  65 2.27  63 2.27  25 3.03  22 3.04
                            24 3.04  20 3.05  76 3.39  78 3.39
  14  0.890  0.890  0.392-  71 2.04  39 2.05  52 2.06  56 2.26  72 2.26  43 2.27  18 3.00  26 3.03
                            78 3.05  76 3.06  79 3.39
  15  0.641  0.640  0.641-  61 2.05  68 2.05  48 2.06  70 2.25  71 2.25  69 2.26  26 3.01  23 3.04
                            79 3.05  21 3.06  80 3.39  77 3.40
  16  0.891  0.891  0.891-  65 2.05  58 2.06  45 2.06  62 2.24  49 2.25  66 2.25  17 2.99  77 3.04
                            80 3.05  24 3.05
  17  1.000  0.002  0.997-  33 1.88  52 1.91  41 1.91  49 2.09  62 2.09  66 2.13  16 2.99   3 3.03
                             9 3.06   5 3.08
  18  0.999  0.000  0.498-  27 1.90  47 1.91  58 1.91  43 2.08  56 2.08  72 2.11  14 3.00   1 3.04
                            11 3.06   7 3.08
  19  0.252  0.249  0.750-  36 1.88  38 1.89  37 1.90  34 2.09  35 2.12  33 2.12   3 3.03   8 3.04
                             2 3.05  12 3.07
  20  0.997  0.498  0.001-  64 1.89  29 1.91  45 1.91  54 2.08  74 2.10  37 2.11  12 2.98  13 3.05
                             1 3.05   7 3.08
  21  0.001  0.497  0.501-  35 1.88  70 1.89  39 1.91  60 2.09  31 2.10  68 2.13  10 2.99   3 3.04
                            15 3.06   5 3.07
  22  0.500  0.997  0.001-  65 1.89  28 1.90  57 1.91  42 2.08  73 2.10  38 2.11   8 3.01  13 3.04
                             1 3.08  11 3.08
  23  0.500  0.500  0.998-  69 1.89  53 1.91  40 1.91  61 2.09  50 2.09  30 2.10   4 2.99  15 3.04
                             9 3.06   5 3.06
  24  0.751  0.749  0.250-  68 1.88  66 1.88  67 1.90  64 2.11  65 2.12  63 2.12  13 3.04  10 3.04
                            16 3.05   6 3.07
  25  0.500  0.501  0.497-  63 1.88  59 1.91  46 1.91  55 2.08  44 2.09  36 2.12   2 3.00  13 3.03
                             7 3.06  11 3.08
  26  0.749  0.751  0.748-  72 1.89  73 1.89  74 1.90  71 2.09  70 2.11  69 2.11  15 3.01  14 3.03
                             8 3.05  12 3.06
  27  0.056  0.181  0.361-  18 1.90  10 2.06  75 2.09   1 2.29
  28  0.361  0.056  0.181-  22 1.90   6 2.04  75 2.09   1 2.30
  29  0.181  0.360  0.056-  20 1.91   4 2.06  75 2.08   1 2.29
  30  0.432  0.306  0.110-  75 1.91   9 2.03  23 2.10   4 2.25
  31  0.109  0.432  0.306-  75 1.91   5 2.03  21 2.10  10 2.24
  32  0.306  0.110  0.431-  75 1.92   3 2.05  79 2.07   6 2.27
  33  0.055  0.182  0.860-  17 1.88  12 2.05  19 2.12   3 2.26
  34  0.359  0.056  0.682-  79 1.91   8 2.04  19 2.09   3 2.26
  35  0.182  0.361  0.556-  21 1.88   2 2.05  19 2.12   3 2.27
  36  0.432  0.305  0.611-  19 1.88  11 2.04  25 2.12   2 2.26
  37  0.111  0.431  0.805-  19 1.90   7 2.04  20 2.11  12 2.25
  38  0.305  0.111  0.932-  19 1.89   1 2.03  22 2.11   8 2.26
  39  0.056  0.681  0.361-  21 1.91  14 2.05  76 2.08   5 2.28
  40  0.361  0.556  0.181-  23 1.91   2 2.06  76 2.08   5 2.28
  41  0.180  0.861  0.056-  17 1.91   8 2.06  76 2.08   5 2.28
  42  0.431  0.807  0.110-  76 1.92  13 2.05  22 2.08   8 2.26
  43  0.110  0.931  0.306-  76 1.92   1 2.03  18 2.08  14 2.27
  44  0.306  0.610  0.431-  76 1.92   7 2.03  25 2.09   2 2.26
  45  0.056  0.680  0.861-  20 1.91  16 2.06  77 2.07   7 2.28
  46  0.361  0.556  0.680-  25 1.91   4 2.06  77 2.08   7 2.28
  47  0.181  0.861  0.556-  18 1.91   6 2.05  77 2.09   7 2.29
  48  0.431  0.806  0.610-  77 1.93  15 2.06  79 2.07   6 2.26
  49  0.110  0.931  0.807-  77 1.92   3 2.05  17 2.09  16 2.25
  50  0.306  0.610  0.932-  77 1.91   5 2.04  23 2.09   4 2.25
  51  0.557  0.181  0.360-  79 1.93   2 2.05  78 2.06   9 2.29
  52  0.861  0.056  0.181-  17 1.91  14 2.06  78 2.08   9 2.28
  53  0.681  0.361  0.056-  23 1.91  12 2.06  78 2.08   9 2.27
  54  0.931  0.306  0.110-  78 1.93   1 2.04  20 2.08  12 2.25
  55  0.610  0.431  0.306-  78 1.92  13 2.05  25 2.08   2 2.25
  56  0.807  0.110  0.431-  78 1.92  11 2.03  18 2.08  14 2.26
  57  0.556  0.180  0.861-  22 1.91   4 2.06  80 2.08  11 2.28
  58  0.861  0.056  0.681-  18 1.91  16 2.06  80 2.08  11 2.27
  59  0.681  0.361  0.556-  25 1.91  10 2.06  80 2.08  11 2.28
  60  0.931  0.306  0.610-  80 1.92   3 2.05  21 2.09  10 2.24
  61  0.610  0.431  0.806-  80 1.92  15 2.05  23 2.09   4 2.24
  62  0.806  0.109  0.931-  80 1.92   9 2.04  17 2.09  16 2.24
  63  0.556  0.682  0.360-  25 1.88   6 2.04  24 2.12  13 2.27
  64  0.860  0.556  0.180-  20 1.89  10 2.06  24 2.11  13 2.27
  65  0.681  0.860  0.056-  22 1.89  16 2.05  24 2.12  13 2.27
  66  0.931  0.805  0.111-  24 1.88   5 2.04  17 2.13  16 2.25
  67  0.611  0.932  0.305-  24 1.90   9 2.05  79 2.09   6 2.27
  68  0.805  0.611  0.431-  24 1.88  15 2.05  21 2.13  10 2.24
  69  0.556  0.681  0.861-  23 1.89   8 2.05  26 2.11  15 2.26
  70  0.861  0.556  0.681-  21 1.89  12 2.05  26 2.11  15 2.25
  71  0.681  0.860  0.557-  79 1.92  14 2.04  26 2.09  15 2.25
  72  0.931  0.805  0.611-  26 1.89   7 2.04  18 2.11  14 2.26
  73  0.610  0.931  0.806-  26 1.89  11 2.04  22 2.10   8 2.26
  74  0.806  0.611  0.930-  26 1.90  13 2.05  20 2.10  12 2.25
  75  0.249  0.250  0.248-  30 1.91  31 1.91  32 1.92  29 2.08  28 2.09  27 2.09   1 3.03   4 3.04
                            10 3.05   6 3.06   5 3.36   9 3.37   3 3.40
  76  0.248  0.748  0.248-  43 1.92  44 1.92  42 1.92  40 2.08  39 2.08  41 2.08   5 3.00   2 3.05
                             8 3.05  14 3.06   7 3.37   1 3.38  13 3.39
  77  0.248  0.747  0.749-  50 1.91  49 1.92  48 1.93  45 2.07  46 2.08  47 2.09   7 3.01  16 3.04
                             4 3.04   6 3.06   5 3.37   3 3.40  15 3.40
  78  0.747  0.248  0.249-  56 1.92  55 1.92  54 1.93  51 2.06  53 2.08  52 2.08   9 3.00   2 3.03
                            14 3.05  12 3.06  11 3.37   1 3.37  13 3.39
  79  0.497  0.998  0.500-  34 1.91  71 1.92  51 1.93  48 2.07  32 2.07  67 2.09   6 2.99   3 3.04
                            15 3.05   9 3.08   8 3.37   2 3.39  14 3.39
  80  0.748  0.248  0.748-  61 1.92  60 1.92  62 1.92  59 2.08  58 2.08  57 2.08  11 3.00   4 3.04
                            10 3.04  16 3.05   9 3.37   3 3.39  15 3.39
 
  Warning from LATTYP: Got some problem with cell dimensions!
  Tried to take original basis but could not verify dimensions!
  LATTYP: Found a triclinic cell.
 ALAT       =    18.2345729403
 B/A-ratio  =     0.5647103122
 C/A-ratio  =     0.6016367188
 COS(alpha) =     0.0001983670
 COS(beta)  =     0.3367853441
 COS(gamma) =     0.8471333656
  
  Lattice vectors:
  
 A1 = ( -10.2987861274,  11.8900737385,  -9.2228412710)
 A2 = (  -5.1481565936,   8.9179520557,  -0.0008626893)
 A3 = (   5.1480225334,   2.9734720271,  -9.2200945246)


Analysis of symmetry for initial positions (statically):
=====================================================================
 Subroutine PRICEL returns:
 Original cell was already a primitive cell.
 

 Routine SETGRP: Setting up the symmetry group for a 
 triclinic supercell.


 Subroutine GETGRP returns: Found  1 space group operations
 (whereof  1 operations were pure point group operations)
 out of a pool of  2 trial point group operations.


The static configuration has the point symmetry C_1 .


Analysis of symmetry for dynamics (positions and initial velocities):
=====================================================================
 Subroutine PRICEL returns:
 Original cell was already a primitive cell.
 

 Routine SETGRP: Setting up the symmetry group for a 
 triclinic supercell.


 Subroutine GETGRP returns: Found  1 space group operations
 (whereof  1 operations were pure point group operations)
 out of a pool of  2 trial point group operations.


The dynamic configuration has the point symmetry C_1 .


 Subroutine INISYM returns: Found  1 space group operations
 (whereof  1 operations are pure point group operations),
 and found     1 'primitive' translations

 
 
 KPOINTS: Autom                                   

Automatic generation of k-mesh.
Space group operators:
 irot       det(A)        alpha          n_x          n_y          n_z        tau_x        tau_y        tau_z
    1     1.000000     0.000001     1.000000     0.000000     0.000000     0.000000     0.000000     0.000000
 
 Subroutine IBZKPT returns following result:
 ===========================================
 
 Found     36 irreducible k-points:
 
 Following reciprocal coordinates:
            Coordinates               Weight
  0.000000  0.000000  0.000000      1.000000
  0.250000  0.000000  0.000000      2.000000
  0.500000  0.000000  0.000000      1.000000
  0.000000  0.250000  0.000000      2.000000
  0.250000  0.250000  0.000000      2.000000
  0.500000  0.250000  0.000000      2.000000
 -0.250000  0.250000 -0.000000      2.000000
  0.000000  0.500000  0.000000      1.000000
  0.250000  0.500000  0.000000      2.000000
  0.500000  0.500000  0.000000      1.000000
  0.000000 -0.000000  0.250000      2.000000
  0.250000 -0.000000  0.250000      2.000000
  0.500000 -0.000000  0.250000      2.000000
 -0.250000 -0.000000  0.250000      2.000000
  0.000000  0.250000  0.250000      2.000000
  0.250000  0.250000  0.250000      2.000000
  0.500000  0.250000  0.250000      2.000000
 -0.250000  0.250000  0.250000      2.000000
  0.000000  0.500000  0.250000      2.000000
  0.250000  0.500000  0.250000      2.000000
  0.500000  0.500000  0.250000      2.000000
 -0.250000  0.500000  0.250000      2.000000
  0.000000 -0.250000  0.250000      2.000000
  0.250000 -0.250000  0.250000      2.000000
  0.500000 -0.250000  0.250000      2.000000
 -0.250000 -0.250000  0.250000      2.000000
  0.000000 -0.000000  0.500000      1.000000
  0.250000 -0.000000  0.500000      2.000000
  0.500000 -0.000000  0.500000      1.000000
  0.000000  0.250000  0.500000      2.000000
  0.250000  0.250000  0.500000      2.000000
  0.500000  0.250000  0.500000      2.000000
 -0.250000  0.250000  0.500000      2.000000
  0.000000  0.500000  0.500000      1.000000
  0.250000  0.500000  0.500000      2.000000
  0.500000  0.500000  0.500000      1.000000
 
 Following cartesian coordinates:
            Coordinates               Weight
  0.000000  0.000000  0.000000      1.000000
  0.024356 -0.014065  0.009063      2.000000
  0.048712 -0.028131  0.018126      1.000000
 -0.000005  0.028124  0.009067      2.000000
  0.024351  0.014059  0.018130      2.000000
  0.048706 -0.000007  0.027193      2.000000
 -0.024361  0.042190  0.000004      2.000000
 -0.000011  0.056249  0.018134      1.000000
  0.024345  0.042183  0.027197      2.000000
  0.048701  0.028118  0.036260      1.000000
 -0.024355 -0.014059  0.009072      2.000000
  0.000000 -0.028125  0.018135      2.000000
  0.024356 -0.042190  0.027198      2.000000
 -0.048711  0.000006  0.000009      2.000000
 -0.024361  0.014065  0.018139      2.000000
 -0.000005 -0.000000  0.027202      2.000000
  0.024351 -0.014066  0.036265      2.000000
 -0.048717  0.028131  0.009076      2.000000
 -0.024366  0.042189  0.027206      2.000000
 -0.000010  0.028124  0.036269      2.000000
  0.024346  0.014059  0.045332      2.000000
 -0.048722  0.056255  0.018143      2.000000
 -0.024350 -0.042183  0.000005      2.000000
  0.000006 -0.056249  0.009068      2.000000
  0.024362 -0.070314  0.018131      2.000000
 -0.048706 -0.028118 -0.009058      2.000000
 -0.048711 -0.028118  0.018144      1.000000
 -0.024355 -0.042184  0.027207      2.000000
  0.000001 -0.056249  0.036270      1.000000
 -0.048716  0.000006  0.027211      2.000000
 -0.024360 -0.014059  0.036274      2.000000
 -0.000005 -0.028125  0.045337      2.000000
 -0.073072  0.014072  0.018148      2.000000
 -0.048722  0.028130  0.036278      1.000000
 -0.024366  0.014065  0.045341      2.000000
 -0.000010 -0.000000  0.054404      1.000000
 
 TETIRR: Found    192 inequivalent tetrahedra from      384


--------------------------------------------------------------------------------------------------------




 Dimension of arrays:
   k-points           NKPTS =     36   k-points in BZ     NKDIM =     36   number of bands    NBANDS=    288
   number of dos      NEDOS =    301   number of ions     NIONS =     80
   non local maximal  LDIM  =      6   non local SUM 2l+1 LMDIM =     18
   total plane-waves  NPLWV = 512000
   max r-space proj   IRMAX =  13705   max aug-charges    IRDMAX=  41345
   dimension x,y,z NGX =    80 NGY =   80 NGZ =   80
   dimension x,y,z NGXF=   160 NGYF=  160 NGZF=  160
   support grid    NGXF=   160 NGYF=  160 NGZF=  160
   ions per type =              16  10  48   6
   NGX,Y,Z   is equivalent  to a cutoff of  12.12, 12.12, 12.12 a.u.
   NGXF,Y,Z  is equivalent  to a cutoff of  24.24, 24.24, 24.25 a.u.

 SYSTEM =  Li(NbTa)O_3                             
 POSCAR =  Li Nb  O Ta + 1 %                       

 Startparameter for this run:
   NWRITE =      0    write-flag & timer
   PREC   = accura    normal or accurate (medium, high low for compatibility)
   ISTART =      0    job   : 0-new  1-cont  2-samecut
   ICHARG =      2    charge: 1-file 2-atom 10-const
   ISPIN  =      1    spin polarized calculation?
   LNONCOLLINEAR =      F non collinear calculations
   LSORBIT =      F    spin-orbit coupling
   INIWAV =      1    electr: 0-lowe 1-rand  2-diag
   LASPH  =      F    aspherical Exc in radial PAW
   METAGGA=      F    non-selfconsistent MetaGGA calc.

 Electronic Relaxation 1
   ENCUT  =  475.0 eV  34.91 Ry    5.91 a.u.  19.50 19.50 19.50*2*pi/ulx,y,z
   ENINI  =  475.0     initial cutoff
   ENAUG  =  605.4 eV  augmentation charge cutoff
   NELM   =   1000;   NELMIN=  4; NELMDL= -5     # of ELM steps 
   EDIFF  = 0.1E-05   stopping-criterion for ELM
   LREAL  =      T    real-space projection
   NLSPLINE    = F    spline interpolate recip. space projectors
   LCOMPAT=      F    compatible to vasp.4.4
   GGA_COMPAT  = T    GGA compatible to vasp.4.4-vasp.4.6
   LMAXPAW     = -100 max onsite density
   LMAXMIX     =    2 max onsite mixed and CHGCAR
   VOSKOWN=      0    Vosko Wilk Nusair interpolation
   ROPT   =   -0.00025  -0.00025  -0.00025  -0.00025
 Ionic relaxation
   EDIFFG = -.5E-02   stopping-criterion for IOM
   NSW    =    200    number of steps for IOM
   NBLOCK =      1;   KBLOCK =    200    inner block; outer block 
   IBRION =      1    ionic relax: 0-MD 1-quasi-New 2-CG
   NFREE  =      0    steps in history (QN), initial steepest desc. (CG)
   ISIF   =      4    stress and relaxation
   IWAVPR =     11    prediction:  0-non 1-charg 2-wave 3-comb
   ISYM   =      2    0-nonsym 1-usesym 2-fastsym
   LCORR  =      T    Harris-Foulkes like correction to forces

   POTIM  = 0.1500    time-step for ionic-motion
   TEIN   =    0.0    initial temperature
   TEBEG  =    0.0;   TEEND  =   0.0 temperature during run
   SMASS  =  -3.00    Nose mass-parameter (am)
   estimated Nose-frequenzy (Omega)   =  0.10E-29 period in steps =****** mass=  -0.275E-26a.u.
   SCALEE = 1.0000    scale energy and forces
   NPACO  =    256;   APACO  = 16.0  distance and # of slots for P.C.
   PSTRESS=    0.0 pullay stress

  Mass of Ions in am
   POMASS =   7.01 92.91 16.00180.95
  Ionic Valenz
   ZVAL   =   1.00 13.00  6.00  5.00
  Atomic Wigner-Seitz radii
   RWIGS  =  -1.00 -1.00 -1.00 -1.00
  virtual crystal weights 
   VCA    =   1.00  1.00  1.00  1.00
   NELECT =     464.0000    total number of electrons
   NUPDOWN=      -1.0000    fix difference up-down

 DOS related values:
   EMIN   =  10.00;   EMAX   =-10.00  energy-range for DOS
   EFERMI =   0.00
   ISMEAR =    -5;   SIGMA  =   0.05  broadening in eV -4-tet -1-fermi 0-gaus

 Electronic relaxation 2 (details)
   IALGO  =     68    algorithm
   LDIAG  =      T    sub-space diagonalisation (order eigenvalues)
   LSUBROT=      F    optimize rotation matrix (better conditioning)
   TURBO    =      0    0=normal 1=particle mesh
   IRESTART =      0    0=no restart 2=restart with 2 vectors
   NREBOOT  =      0    no. of reboots
   NMIN     =      0    reboot dimension
   EREF     =   0.00    reference energy to select bands
   IMIX   =      4    mixing-type and parameters
     AMIX     =   0.40;   BMIX     =  1.00
     AMIX_MAG =   1.60;   BMIX_MAG =  1.00
     AMIN     =   0.10
     WC   =   100.;   INIMIX=   1;  MIXPRE=   1;  MAXMIX= -45

 Intra band minimization:
   WEIMIN = 0.0010     energy-eigenvalue tresh-hold
   EBREAK =  0.87E-09  absolut break condition
   DEPER  =   0.30     relativ break condition  

   TIME   =   0.40     timestep for ELM

  volume/ion in A,a.u.               =      10.59        71.44
  Fermi-wavevector in a.u.,A,eV,Ry     =   1.339556  2.531395 24.414452  1.794412
  Thomas-Fermi vector in A             =   2.467939
 
 Write flags
   LWAVE        =      F    write WAVECAR
   LDOWNSAMPLE  =      F    k-point downsampling of WAVECAR
   LCHARG       =      F    write CHGCAR
   LVTOT        =      F    write LOCPOT, total local potential
   LVHAR        =      F    write LOCPOT, Hartree potential only
   LELF         =      F    write electronic localiz. function (ELF)
   LORBIT       =      0    0 simple, 1 ext, 2 COOP (PROOUT), +10 PAW based schemes


 Dipole corrections
   LMONO  =      F    monopole corrections only (constant potential shift)
   LDIPOL =      F    correct potential (dipole corrections)
   IDIPOL =      0    1-x, 2-y, 3-z, 4-all directions 
   EPSILON=  1.0000000 bulk dielectric constant

 Exchange correlation treatment:
   GGA     =    PS    GGA type
   LEXCH   =    14    internal setting for exchange type
   VOSKOWN=      0    Vosko Wilk Nusair interpolation
   LHFCALC =     F    Hartree Fock is set to
   LHFONE  =     F    Hartree Fock one center treatment
   AEXX    =    0.0000 exact exchange contribution

 Linear response parameters
   LEPSILON=     F    determine dielectric tensor
   LRPA    =     F    only Hartree local field effects (RPA)
   LNABLA  =     F    use nabla operator in PAW spheres
   LVEL    =     F    velocity operator in full k-point grid
   LINTERFAST=   F  fast interpolation
   KINTER  =     0    interpolate to denser k-point grid
   CSHIFT  =0.1000    complex shift for real part using Kramers Kronig
   OMEGAMAX=  -1.0    maximum frequency
   DEG_THRESHOLD= 0.2000000E-02 threshold for treating states as degnerate
   RTIME   =   -0.100 relaxation time in fs
  (WPLASMAI=    0.000 imaginary part of plasma frequency in eV, 0.658/RTIME)
   DFIELD  = 0.0000000 0.0000000 0.0000000 field for delta impulse in time
 
 Orbital magnetization related:
   ORBITALMAG=     F  switch on orbital magnetization
   LCHIMAG   =     F  perturbation theory with respect to B field
   DQ        =  0.001000  dq finite difference perturbation B field
   LLRAUG    =     F  two centre corrections for induced B field



--------------------------------------------------------------------------------------------------------


 quasi-Newton-method for relaxation of ions
 charge density and potential will be updated during run
 non-spin polarized calculation
 RMM-DIIS sequential band-by-band and
  variant of blocked Davidson during initial phase
 perform sub-space diagonalisation
    before iterative eigenvector-optimisation
 modified Broyden-mixing scheme, WC =      100.0
 initial mixing is a Kerker type mixing with AMIX =  0.4000 and BMIX =      1.0000
 Hartree-type preconditioning will be used
 using additional bands           56
 real space projection scheme for non local part
 use partial core corrections
 calculate Harris-corrections to forces 
   (improved forces if not selfconsistent)
 use gradient corrections 
 use of overlap-Matrix (Vanderbilt PP)
 Fermi weights with tetrahedron method with Bloechl corrections


--------------------------------------------------------------------------------------------------------


  energy-cutoff  :      475.00
  volume of cell :      846.95
      direct lattice vectors                 reciprocal lattice vectors
     5.150629534 -2.972121683  9.221978582     0.097100828 -0.056075493  0.036131771
     0.002472940  5.945830373  9.221115892    -0.000021315  0.112124560  0.036148167
    -5.148022533 -2.973472027  9.220094525    -0.097099353 -0.056050029  0.036167433

  length of vectors
    10.973029703 10.971867810 10.970588632     0.117807201  0.117807502  0.117804810


 
 k-points in units of 2pi/SCALE and weight: Autom                                   
   0.00000000  0.00000000  0.00000000       0.016
   0.02435586 -0.01406545  0.00906295       0.031
   0.04871171 -0.02813090  0.01812591       0.016
  -0.00000535  0.02812427  0.00906707       0.031
   0.02435051  0.01405882  0.01813002       0.031
   0.04870637 -0.00000663  0.02719297       0.031
  -0.02436120  0.04218972  0.00000411       0.031
  -0.00001069  0.05624853  0.01813413       0.016
   0.02434516  0.04218309  0.02719708       0.031
   0.04870102  0.02811764  0.03626004       0.016
  -0.02435549 -0.01405906  0.00907190       0.031
   0.00000037 -0.02812451  0.01813485       0.031
   0.02435623 -0.04218996  0.02719780       0.031
  -0.04871134  0.00000639  0.00000895       0.031
  -0.02436083  0.01406521  0.01813896       0.031
  -0.00000498 -0.00000024  0.02720192       0.031
   0.02435088 -0.01406569  0.03626487       0.031
  -0.04871669  0.02813065  0.00907601       0.031
  -0.02436618  0.04218947  0.02720603       0.031
  -0.00001032  0.02812403  0.03626898       0.031
   0.02434553  0.01405858  0.04533193       0.031
  -0.04872204  0.05625492  0.01814308       0.031
  -0.02435014 -0.04218333  0.00000483       0.031
   0.00000572 -0.05624878  0.00906779       0.031
   0.02436157 -0.07031422  0.01813074       0.031
  -0.04870600 -0.02811788 -0.00905812       0.031
  -0.04871097 -0.02811812  0.01814380       0.016
  -0.02435512 -0.04218357  0.02720675       0.031
   0.00000074 -0.05624902  0.03626970       0.016
  -0.04871632  0.00000615  0.02721086       0.031
  -0.02436046 -0.01405930  0.03627381       0.031
  -0.00000461 -0.02812475  0.04533677       0.031
  -0.07307217  0.01407159  0.01814791       0.031
  -0.04872167  0.02813041  0.03627793       0.016
  -0.02436581  0.01406497  0.04534088       0.031
  -0.00000995 -0.00000048  0.05440383       0.016
 
 k-points in reciprocal lattice and weights: Autom                                   
   0.00000000  0.00000000  0.00000000       0.016
   0.25000000  0.00000000  0.00000000       0.031
   0.50000000  0.00000000  0.00000000       0.016
   0.00000000  0.25000000  0.00000000       0.031
   0.25000000  0.25000000  0.00000000       0.031
   0.50000000  0.25000000  0.00000000       0.031
  -0.25000000  0.25000000 -0.00000000       0.031
   0.00000000  0.50000000  0.00000000       0.016
   0.25000000  0.50000000  0.00000000       0.031
   0.50000000  0.50000000  0.00000000       0.016
   0.00000000 -0.00000000  0.25000000       0.031
   0.25000000 -0.00000000  0.25000000       0.031
   0.50000000 -0.00000000  0.25000000       0.031
  -0.25000000 -0.00000000  0.25000000       0.031
   0.00000000  0.25000000  0.25000000       0.031
   0.25000000  0.25000000  0.25000000       0.031
   0.50000000  0.25000000  0.25000000       0.031
  -0.25000000  0.25000000  0.25000000       0.031
   0.00000000  0.50000000  0.25000000       0.031
   0.25000000  0.50000000  0.25000000       0.031
   0.50000000  0.50000000  0.25000000       0.031
  -0.25000000  0.50000000  0.25000000       0.031
   0.00000000 -0.25000000  0.25000000       0.031
   0.25000000 -0.25000000  0.25000000       0.031
   0.50000000 -0.25000000  0.25000000       0.031
  -0.25000000 -0.25000000  0.25000000       0.031
   0.00000000 -0.00000000  0.50000000       0.016
   0.25000000 -0.00000000  0.50000000       0.031
   0.50000000 -0.00000000  0.50000000       0.016
   0.00000000  0.25000000  0.50000000       0.031
   0.25000000  0.25000000  0.50000000       0.031
   0.50000000  0.25000000  0.50000000       0.031
  -0.25000000  0.25000000  0.50000000       0.031
   0.00000000  0.50000000  0.50000000       0.016
   0.25000000  0.50000000  0.50000000       0.031
   0.50000000  0.50000000  0.50000000       0.016
 
 position of ions in fractional coordinates (direct lattice) 
   0.13834752  0.13936271  0.13984335
   0.39146324  0.38999630  0.39085144
   0.14028321  0.14032414  0.64092124
   0.39173469  0.39088444  0.89059988
   0.14005761  0.63914415  0.13990376
   0.38998511  0.89022976  0.39046082
   0.14027342  0.63856692  0.63942290
   0.39066873  0.89122478  0.89017412
   0.63968950  0.14081636  0.13851063
   0.89081879  0.39199278  0.39127564
   0.64044608  0.13979598  0.63895884
   0.89104424  0.39188824  0.88993991
   0.63987068  0.64050964  0.14005521
   0.88952244  0.89019616  0.39154151
   0.64095434  0.64008558  0.64144699
   0.89103108  0.89076076  0.89134632
   0.99959237  0.00150112  0.99675172
   0.99938324  0.00003493  0.49763958
   0.25168038  0.24891337  0.74959517
   0.99749990  0.49794372  0.00086033
   0.00052440  0.49715140  0.50088067
   0.49988249  0.99738472  0.00090131
   0.49954620  0.50003968  0.99785757
   0.75097315  0.74942469  0.24984287
   0.49985523  0.50129758  0.49655071
   0.74940214  0.75095878  0.74802348
   0.05623360  0.18120304  0.36059596
   0.36055215  0.05618073  0.18135900
   0.18067803  0.36043515  0.05635112
   0.43164615  0.30579781  0.11007695
   0.10933811  0.43208088  0.30572184
   0.30616879  0.11038237  0.43144631
   0.05540035  0.18155956  0.86034038
   0.35943918  0.05639020  0.68203455
   0.18159346  0.36067916  0.55556672
   0.43176800  0.30520898  0.61104129
   0.11066152  0.43074915  0.80539644
   0.30515946  0.11079423  0.93190663
   0.05604537  0.68076856  0.36081137
   0.36061507  0.55618152  0.18081868
   0.18040413  0.86090372  0.05629587
   0.43096027  0.80670950  0.10983535
   0.11018018  0.93120277  0.30647725
   0.30631393  0.60963452  0.43142758
   0.05642617  0.67983109  0.86072292
   0.36082901  0.55621291  0.68039936
   0.18050111  0.86073339  0.55625759
   0.43105925  0.80638098  0.60992686
   0.10974163  0.93076687  0.80662904
   0.30592914  0.60973059  0.93157562
   0.55668960  0.18089021  0.36049958
   0.86099568  0.05588109  0.18065345
   0.68094161  0.36072792  0.05606070
   0.93094987  0.30643726  0.10970186
   0.61015919  0.43137998  0.30635721
   0.80662739  0.10979363  0.43135599
   0.55625493  0.18016866  0.86082204
   0.86060460  0.05601788  0.68054061
   0.68056339  0.36084158  0.55626059
   0.93128773  0.30623948  0.60979445
   0.61008613  0.43101265  0.80636497
   0.80623116  0.10929440  0.93147945
   0.55554077  0.68183433  0.36007734
   0.86007458  0.55634829  0.18046819
   0.68107200  0.86046774  0.05575260
   0.93136114  0.80492582  0.11095065
   0.61067752  0.93165297  0.30547765
   0.80503784  0.61074302  0.43111591
   0.55556968  0.68082022  0.86090541
   0.86059508  0.55581627  0.68050717
   0.68097931  0.85972506  0.55655493
   0.93138973  0.80539064  0.61084254
   0.61024363  0.93134011  0.80571432
   0.80584636  0.61083297  0.93009391
   0.24862253  0.24992729  0.24762435
   0.24806756  0.74806531  0.24849505
   0.24752603  0.74745881  0.74934160
   0.74730972  0.24776208  0.24918815
   0.49682629  0.99767190  0.50015434
   0.74834988  0.24827406  0.74832874
 
 position of ions in cartesian coordinates  (Angst):
  -0.00699524  0.00162111  3.85028650
   0.00513456 -0.00681033 10.80995392
  -2.57658315 -1.48835660  8.49698841
  -2.56618134 -1.48832445 15.42837473
   0.00273774  2.96797454  8.47515640
   0.00076923  2.97304766 15.40543178
  -2.56768793  1.47859481 13.07743771
  -2.56824261  1.49104851 20.02831516
   2.58209604 -1.47582232  8.47476801
   2.57495112 -1.48034643 15.43732103
   0.00967166 -2.97220673 13.08651590
   0.00897719 -2.96440234 20.03616789
   2.57631342  1.49013790 13.09840956
   2.56813743  1.48494868 20.02180865
   0.00071772 -0.00647866 17.72737240
   0.00290284 -0.00233374 24.64917511
   0.01723338 -5.92579816 18.42220654
   2.58559317 -4.44979831 13.80489691
  -2.56200490 -1.49692827 11.52758842
   5.13455479 -0.00656035 13.79845177
  -2.57461456  1.46506467  9.20729374
   2.57253603  4.44188877 13.81521582
  -2.56277926 -1.47866257 18.41806932
   2.58364108  1.48106772 16.13956513
   0.01955453  0.01852014 13.81042180
   0.01090816  0.01353229 20.73249556
  -1.56626956 -0.16195254  5.51420815
   0.92356926 -1.27682970  5.51520037
   0.64140012  1.43853071  5.50938587
   1.65732704  0.20800632  7.81534849
  -1.00963433  1.33505814  7.81136585
  -0.64386035 -1.53654957  7.81930649
  -4.14325599 -1.64333233 10.11750221
  -1.65965176 -2.76102109 10.12314394
  -1.92385745 -0.04714284 10.12289307
  -0.92102253 -1.28546041 12.42998102
  -3.57515735 -0.16256193 12.41833726
  -3.22543900 -3.01920565 12.42808775
  -1.56711262  2.80829824 10.12100987
   0.92791137  1.69750981 10.12136396
   0.64151136  4.41521025 10.12122925
   1.65627679  3.18909915 12.42576057
  -1.00795166  4.29800326 12.42855710
  -0.64178177  1.43154333 12.42413410
  -4.13870953  1.31511940 14.72510890
  -1.64283922  0.21157147 14.72980751
  -1.93180369  2.92728707 14.73024727
  -0.91769657  1.69984355 17.03453491
  -3.58500428  2.80952753 17.03194018
  -3.21853677 -0.05391804 17.03288371
   1.01188926 -1.65094218 10.12562938
   3.50479991 -2.76389245 10.12101162
   3.21956828 -0.04570921 10.12282786
   4.23098803 -1.27106777 12.42235476
   1.56663686 -0.15949974 12.42932225
   1.93428003 -3.02720540 12.42826328
  -1.56602262 -3.14163531 14.72798773
   0.92935560 -4.24831725 14.72767322
   0.64258022 -1.53123972 14.73227823
   1.65823983 -2.76025920 17.03454776
  -1.00779153 -1.64822580 17.03538012
  -0.64240888 -4.51609925 17.03119140
   1.00938458  1.33225658 14.73040555
   3.50224704  0.21508915 14.72567523
   3.22306180  2.92618760 14.72934838
   4.22791030  1.68792507 17.03428226
   1.57507177  2.81611334 17.03906786
   1.92856760 -0.04320710 17.03070336
  -1.56874322 -0.16305729 19.33900320
   0.93071471 -1.27647308 19.33597600
   0.64444085  1.43292548 19.33909001
   1.65460398  0.20418929 21.64788260
  -1.00239345  1.32810302 21.64441102
  -0.63601777 -1.52877246 21.63961320
   0.00640486  0.01078478  6.88052003
   0.00029591  2.97168940 11.47681841
  -2.58086415  1.48043949 16.08408444
   2.56690201 -1.48889815 11.47385536
  -0.01337046  2.96816475 18.39283987
   0.00267379 -2.97312603 16.09029217
 


--------------------------------------------------------------------------------------------------------


 k-point  1 :   0.0000 0.0000 0.0000  plane waves:   19951
 k-point  2 :   0.2500 0.0000 0.0000  plane waves:   19904
 k-point  3 :   0.5000 0.0000 0.0000  plane waves:   19922
 k-point  4 :   0.0000 0.2500 0.0000  plane waves:   19904
 k-point  5 :   0.2500 0.2500 0.0000  plane waves:   19934
 k-point  6 :   0.5000 0.2500 0.0000  plane waves:   19900
 k-point  7 :  -0.2500 0.2500-0.0000  plane waves:   19930
 k-point  8 :   0.0000 0.5000 0.0000  plane waves:   19924
 k-point  9 :   0.2500 0.5000 0.0000  plane waves:   19897
 k-point 10 :   0.5000 0.5000 0.0000  plane waves:   19888
 k-point 11 :   0.0000-0.0000 0.2500  plane waves:   19908
 k-point 12 :   0.2500-0.0000 0.2500  plane waves:   19935
 k-point 13 :   0.5000-0.0000 0.2500  plane waves:   19900
 k-point 14 :  -0.2500-0.0000 0.2500  plane waves:   19931
 k-point 15 :   0.0000 0.2500 0.2500  plane waves:   19936
 k-point 16 :   0.2500 0.2500 0.2500  plane waves:   19927
 k-point 17 :   0.5000 0.2500 0.2500  plane waves:   19898
 k-point 18 :  -0.2500 0.2500 0.2500  plane waves:   19912
 k-point 19 :   0.0000 0.5000 0.2500  plane waves:   19901
 k-point 20 :   0.2500 0.5000 0.2500  plane waves:   19895
 k-point 21 :   0.5000 0.5000 0.2500  plane waves:   19880
 k-point 22 :  -0.2500 0.5000 0.2500  plane waves:   19905
 k-point 23 :   0.0000-0.2500 0.2500  plane waves:   19933
 k-point 24 :   0.2500-0.2500 0.2500  plane waves:   19911
 k-point 25 :   0.5000-0.2500 0.2500  plane waves:   19904
 k-point 26 :  -0.2500-0.2500 0.2500  plane waves:   19911
 k-point 27 :   0.0000-0.0000 0.5000  plane waves:   19916
 k-point 28 :   0.2500-0.0000 0.5000  plane waves:   19897
 k-point 29 :   0.5000-0.0000 0.5000  plane waves:   19890
 k-point 30 :   0.0000 0.2500 0.5000  plane waves:   19897
 k-point 31 :   0.2500 0.2500 0.5000  plane waves:   19893
 k-point 32 :   0.5000 0.2500 0.5000  plane waves:   19879
 k-point 33 :  -0.2500 0.2500 0.5000  plane waves:   19904
 k-point 34 :   0.0000 0.5000 0.5000  plane waves:   19890
 k-point 35 :   0.2500 0.5000 0.5000  plane waves:   19877
 k-point 36 :   0.5000 0.5000 0.5000  plane waves:   19868

 maximum and minimum number of plane-waves per node :     19951    19868

 maximum number of plane-waves:     19951
 maximum index in each direction: 
   IXMAX=   19   IYMAX=   19   IZMAX=   19
   IXMIN=  -19   IYMIN=  -19   IZMIN=  -19


 serial   3D FFT for wavefunctions
 parallel 3D FFT for charge:
    minimum data exchange during FFTs selected (reduces bandwidth)


 total amount of memory used by VASP MPI-rank0   177869. kBytes
=======================================================================

   base      :      30000. kBytes
   nonlr-proj:      67944. kBytes
   fftplans  :       4575. kBytes
   grid      :      26165. kBytes
   one-center:       1244. kBytes
   wavefun   :      47941. kBytes
 
     INWAV:  cpu time    0.0000: real time    0.0000
 Broyden mixing: mesh for mixing (old mesh)
   NGX = 39   NGY = 39   NGZ = 39
  (NGX  =160   NGY  =160   NGZ  =160)
  gives a total of  59319 points

 initial charge density was supplied:
 charge density of overlapping atoms calculated
 number of electron     464.0000000 magnetization 
 keeping initial charge density in first step


--------------------------------------------------------------------------------------------------------


 Maximum index for non-local projection operator        13284
 Maximum index for augmentation-charges         1303 (set IRDMAX)


--------------------------------------------------------------------------------------------------------


 First call to EWALD:  gamma=   0.187
 Maximum number of real-space cells 3x 3x 3
 Maximum number of reciprocal cells 3x 3x 3

    FEWALD:  cpu time    0.0029: real time    0.0029


--------------------------------------- Iteration      1(   1)  ---------------------------------------


    POTLOK:  cpu time    0.0879: real time    0.0925
    SETDIJ:  cpu time    0.0117: real time    0.0117
     EDDAV:  cpu time   26.2589: real time   26.2555
 BZINTS: Fermi energy: 19.112241;464.000000 electrons
         Band energy: 188.900074;  BLOECHL correction: -0.023432
       DOS:  cpu time    0.0613: real time    0.0613
    --------------------------------------------
      LOOP:  cpu time   26.4198: real time   26.4210

 eigenvalue-minimisations  : 20736
 total energy-change (2. order) : 0.3625403E+04  (-0.2454123E+05)
 number of electron     464.0000000 magnetization 
 augmentation part      464.0000000 magnetization 

 Free energy of the ion-electron system (eV)
  ---------------------------------------------------
  alpha Z        PSCENC =      1624.69313165
  Ewald energy   TEWEN  =    -26710.37146774
  -Hartree energ DENC   =    -10679.76865480
  -exchange      EXHF   =         0.00000000
  -V(xc)+E(xc)   XCENC  =      1465.57870813
  PAW double counting   =     30201.20122080   -29545.67637776
  entropy T*S    EENTRO =         0.00000000
  eigenvalues    EBANDS =       188.90007446
  atomic energy  EATOM  =     37080.84622879
  Solvation  Ediel_sol  =         0.00000000
  ---------------------------------------------------
  free energy    TOTEN  =      3625.40286354 eV

  energy without entropy =     3625.40286354  energy(sigma->0) =     3625.40286354


--------------------------------------------------------------------------------------------------------




--------------------------------------- Iteration      1(   2)  ---------------------------------------


     EDDAV:  cpu time   38.9976: real time   39.0086
 BZINTS: Fermi energy:  1.171437;464.000000 electrons
         Band energy:***********;  BLOECHL correction:  0.000000
       DOS:  cpu time    0.0110: real time    0.0110
    --------------------------------------------
      LOOP:  cpu time   39.0085: real time   39.0196

 eigenvalue-minimisations  : 31104
 total energy-change (2. order) :-0.4183345E+04  (-0.4123021E+04)
 number of electron     464.0000000 magnetization 
 augmentation part      464.0000000 magnetization 

 Free energy of the ion-electron system (eV)
  ---------------------------------------------------
  alpha Z        PSCENC =      1624.69313165
  Ewald energy   TEWEN  =    -26710.37146774
  -Hartree energ DENC   =    -10679.76865480
  -exchange      EXHF   =         0.00000000
  -V(xc)+E(xc)   XCENC  =      1465.57870813
  PAW double counting   =     30201.20122080   -29545.67637776
  entropy T*S    EENTRO =         0.00000000
  eigenvalues    EBANDS =     -3994.44497541
  atomic energy  EATOM  =     37080.84622879
  Solvation  Ediel_sol  =         0.00000000
  ---------------------------------------------------
  free energy    TOTEN  =      -557.94218633 eV

  energy without entropy =     -557.94218633  energy(sigma->0) =     -557.94218633


--------------------------------------------------------------------------------------------------------




--------------------------------------- Iteration      1(   3)  ---------------------------------------


     EDDAV:  cpu time   38.8826: real time   38.8950
 BZINTS: Fermi energy:  0.195250;464.000000 electrons
         Band energy:***********;  BLOECHL correction:  0.000000
       DOS:  cpu time    0.0109: real time    0.0109
    --------------------------------------------
      LOOP:  cpu time   38.8935: real time   38.9059

 eigenvalue-minimisations  : 31104
 total energy-change (2. order) :-0.2423971E+03  (-0.2415326E+03)
 number of electron     464.0000000 magnetization 
 augmentation part      464.0000000 magnetization 

 Free energy of the ion-electron system (eV)
  ---------------------------------------------------
  alpha Z        PSCENC =      1624.69313165
  Ewald energy   TEWEN  =    -26710.37146774
  -Hartree energ DENC   =    -10679.76865480
  -exchange      EXHF   =         0.00000000
  -V(xc)+E(xc)   XCENC  =      1465.57870813
  PAW double counting   =     30201.20122080   -29545.67637776
  entropy T*S    EENTRO =         0.00000000
  eigenvalues    EBANDS =     -4236.84204268
  atomic energy  EATOM  =     37080.84622879
  Solvation  Ediel_sol  =         0.00000000
  ---------------------------------------------------
  free energy    TOTEN  =      -800.33925361 eV

  energy without entropy =     -800.33925361  energy(sigma->0) =     -800.33925361


--------------------------------------------------------------------------------------------------------




--------------------------------------- Iteration      1(   4)  ---------------------------------------


     EDDAV:  cpu time   45.3874: real time   45.3878
 BZINTS: Fermi energy:  0.209425;464.000000 electrons
         Band energy:***********;  BLOECHL correction:  0.000000
       DOS:  cpu time    0.0094: real time    0.0094
    --------------------------------------------
      LOOP:  cpu time   45.3968: real time   45.3972

 eigenvalue-minimisations  : 36288
 total energy-change (2. order) :-0.1089124E+02  (-0.1088218E+02)
 number of electron     464.0000000 magnetization 
 augmentation part      464.0000000 magnetization 

 Free energy of the ion-electron system (eV)
  ---------------------------------------------------
  alpha Z        PSCENC =      1624.69313165
  Ewald energy   TEWEN  =    -26710.37146774
  -Hartree energ DENC   =    -10679.76865480
  -exchange      EXHF   =         0.00000000
  -V(xc)+E(xc)   XCENC  =      1465.57870813
  PAW double counting   =     30201.20122080   -29545.67637776
  entropy T*S    EENTRO =         0.00000000
  eigenvalues    EBANDS =     -4247.73328234
  atomic energy  EATOM  =     37080.84622879
  Solvation  Ediel_sol  =         0.00000000
  ---------------------------------------------------
  free energy    TOTEN  =      -811.23049326 eV

  energy without entropy =     -811.23049326  energy(sigma->0) =     -811.23049326


--------------------------------------------------------------------------------------------------------




--------------------------------------- Iteration      1(   5)  ---------------------------------------


     EDDAV:  cpu time   39.3664: real time   39.3783
 BZINTS: Fermi energy:  0.146246;464.000000 electrons
         Band energy:***********;  BLOECHL correction:  0.000000
       DOS:  cpu time    0.0096: real time    0.0096
    CHARGE:  cpu time    0.9960: real time    0.9958
    MIXING:  cpu time    0.0011: real time    0.0011
    --------------------------------------------
      LOOP:  cpu time   40.3730: real time   40.3848

 eigenvalue-minimisations  : 31896
 total energy-change (2. order) :-0.2137820E+00  (-0.2137766E+00)
 number of electron     463.9999949 magnetization 
 augmentation part       51.7743181 magnetization 

 Broyden mixing:
  rms(total) = 0.10425E+02    rms(broyden)= 0.10424E+02
  rms(prec ) = 0.12356E+02
  weight for this iteration     100.00

 Free energy of the ion-electron system (eV)
  ---------------------------------------------------
  alpha Z        PSCENC =      1624.69313165
  Ewald energy   TEWEN  =    -26710.37146774
  -Hartree energ DENC   =    -10679.76865480
  -exchange      EXHF   =         0.00000000
  -V(xc)+E(xc)   XCENC  =      1465.57870813
  PAW double counting   =     30201.20122080   -29545.67637776
  entropy T*S    EENTRO =         0.00000000
  eigenvalues    EBANDS =     -4247.94706432
  atomic energy  EATOM  =     37080.84622879
  Solvation  Ediel_sol  =         0.00000000
  ---------------------------------------------------
  free energy    TOTEN  =      -811.44427525 eV

  energy without entropy =     -811.44427525  energy(sigma->0) =     -811.44427525


--------------------------------------------------------------------------------------------------------




--------------------------------------- Iteration      1(   6)  ---------------------------------------


    POTLOK:  cpu time    0.0462: real time    0.0612
    SETDIJ:  cpu time    0.0104: real time    0.0104
    EDDIAG:  cpu time    3.9462: real time    3.9458
  RMM-DIIS:  cpu time   13.9321: real time   13.9313
    ORTHCH:  cpu time    0.5606: real time    0.5606
 BZINTS: Fermi energy:  3.262617;464.000000 electrons
         Band energy:***********;  BLOECHL correction:  0.000000
       DOS:  cpu time    0.0087: real time    0.0087
    CHARGE:  cpu time    0.9796: real time    0.9795
    MIXING:  cpu time    0.0012: real time    0.0012
    --------------------------------------------
      LOOP:  cpu time   19.4851: real time   19.4987

 eigenvalue-minimisations  : 23659
 total energy-change (2. order) : 0.1214347E+03  (-0.6792332E+02)
 number of electron     463.9999962 magnetization 
 augmentation part       44.9597160 magnetization 

 Broyden mixing:
  rms(total) = 0.48837E+01    rms(broyden)= 0.48820E+01
  rms(prec ) = 0.50468E+01
  weight for this iteration     100.00

 eigenvalues of (default mixing * dielectric matrix)
  average eigenvalue GAMMA=   1.0950
  1.0950

 Free energy of the ion-electron system (eV)
  ---------------------------------------------------
  alpha Z        PSCENC =      1624.69313165
  Ewald energy   TEWEN  =    -26710.37146774
  -Hartree energ DENC   =    -11173.90666935
  -exchange      EXHF   =         0.00000000
  -V(xc)+E(xc)   XCENC  =      1519.36162205
  PAW double counting   =     36191.57605544   -35569.49867678
  entropy T*S    EENTRO =         0.00000000
  eigenvalues    EBANDS =     -3652.70975604
  atomic energy  EATOM  =     37080.84622879
  Solvation  Ediel_sol  =         0.00000000
  ---------------------------------------------------
  free energy    TOTEN  =      -690.00953197 eV

  energy without entropy =     -690.00953197  energy(sigma->0) =     -690.00953197


--------------------------------------------------------------------------------------------------------




--------------------------------------- Iteration      1(   7)  ---------------------------------------


    POTLOK:  cpu time    0.0451: real time    0.0591
    SETDIJ:  cpu time    0.0098: real time    0.0098
    EDDIAG:  cpu time    3.9457: real time    3.9455
  RMM-DIIS:  cpu time   16.0316: real time   16.0307
    ORTHCH:  cpu time    0.5596: real time    0.5596
 BZINTS: Fermi energy:  3.039182;464.000000 electrons
         Band energy:***********;  BLOECHL correction:  0.000000
       DOS:  cpu time    0.0100: real time    0.0100
    CHARGE:  cpu time    0.9805: real time    0.9804
    MIXING:  cpu time    0.0013: real time    0.0013
    --------------------------------------------
      LOOP:  cpu time   21.5835: real time   21.5963

 eigenvalue-minimisations  : 24642
 total energy-change (2. order) : 0.9459614E+01  (-0.3332081E+01)
 number of electron     463.9999961 magnetization 
 augmentation part       45.1831885 magnetization 

 Broyden mixing:
  rms(total) = 0.21685E+01    rms(broyden)= 0.21684E+01
  rms(prec ) = 0.22691E+01
  weight for this iteration     100.00

 eigenvalues of (default mixing * dielectric matrix)
  average eigenvalue GAMMA=   1.1569
  0.9015  1.4122

 Free energy of the ion-electron system (eV)
  ---------------------------------------------------
  alpha Z        PSCENC =      1624.69313165
  Ewald energy   TEWEN  =    -26710.37146774
  -Hartree energ DENC   =    -11036.97784069
  -exchange      EXHF   =         0.00000000
  -V(xc)+E(xc)   XCENC  =      1510.45689840
  PAW double counting   =     41264.94045839   -40633.17909165
  entropy T*S    EENTRO =         0.00000000
  eigenvalues    EBANDS =     -3780.95823534
  atomic energy  EATOM  =     37080.84622879
  Solvation  Ediel_sol  =         0.00000000
  ---------------------------------------------------
  free energy    TOTEN  =      -680.54991818 eV

  energy without entropy =     -680.54991818  energy(sigma->0) =     -680.54991818


--------------------------------------------------------------------------------------------------------




--------------------------------------- Iteration      1(   8)  ---------------------------------------


    POTLOK:  cpu time    0.0496: real time    0.0621
    SETDIJ:  cpu time    0.0100: real time    0.0102
    EDDIAG:  cpu time    3.9700: real time    3.9696
  RMM-DIIS:  cpu time   16.3766: real time   16.3757
    ORTHCH:  cpu time    0.5595: real time    0.5595
 BZINTS: Fermi energy:  2.724136;464.000000 electrons
         Band energy:***********;  BLOECHL correction:  0.000000
       DOS:  cpu time    0.0099: real time    0.0099
    CHARGE:  cpu time    0.9874: real time    0.9874
    MIXING:  cpu time    0.0013: real time    0.0013
    --------------------------------------------
      LOOP:  cpu time   21.9643: real time   21.9757

 eigenvalue-minimisations  : 25343
 total energy-change (2. order) : 0.1638120E+00  (-0.1202924E+01)
 number of electron     463.9999960 magnetization 
 augmentation part       45.4106816 magnetization 

 Broyden mixing:
  rms(total) = 0.84946E+00    rms(broyden)= 0.84930E+00
  rms(prec ) = 0.90169E+00
  weight for this iteration     100.00

 eigenvalues of (default mixing * dielectric matrix)
  average eigenvalue GAMMA=   1.3473
  2.1142  0.9639  0.9639

 Free energy of the ion-electron system (eV)
  ---------------------------------------------------
  alpha Z        PSCENC =      1624.69313165
  Ewald energy   TEWEN  =    -26710.37146774
  -Hartree energ DENC   =    -10991.57256329
  -exchange      EXHF   =         0.00000000
  -V(xc)+E(xc)   XCENC  =      1507.60195916
  PAW double counting   =     43504.25314289   -42860.26814443
  entropy T*S    EENTRO =         0.00000000
  eigenvalues    EBANDS =     -3835.56839325
  atomic energy  EATOM  =     37080.84622879
  Solvation  Ediel_sol  =         0.00000000
  ---------------------------------------------------
  free energy    TOTEN  =      -680.38610622 eV

  energy without entropy =     -680.38610622  energy(sigma->0) =     -680.38610622


--------------------------------------------------------------------------------------------------------




--------------------------------------- Iteration      1(   9)  ---------------------------------------


    POTLOK:  cpu time    0.0462: real time    0.0600
    SETDIJ:  cpu time    0.0098: real time    0.0098
    EDDIAG:  cpu time    3.9689: real time    3.9684
  RMM-DIIS:  cpu time   18.1424: real time   18.1412
    ORTHCH:  cpu time    0.5633: real time    0.5633
 BZINTS: Fermi energy:  2.786513;464.000000 electrons
         Band energy:***********;  BLOECHL correction:  0.000000
       DOS:  cpu time    0.0084: real time    0.0084
    CHARGE:  cpu time    0.9856: real time    0.9855
    MIXING:  cpu time    0.0013: real time    0.0013
    --------------------------------------------
      LOOP:  cpu time   23.7259: real time   23.7379

 eigenvalue-minimisations  : 32790
 total energy-change (2. order) : 0.7037689E-01  (-0.2018121E+00)
 number of electron     463.9999960 magnetization 
 augmentation part       45.0990711 magnetization 

 Broyden mixing:
  rms(total) = 0.26680E+00    rms(broyden)= 0.26677E+00
  rms(prec ) = 0.29972E+00
  weight for this iteration     100.00

 eigenvalues of (default mixing * dielectric matrix)
  average eigenvalue GAMMA=   1.4683
  2.3168  1.7451  0.9057  0.9057

 Free energy of the ion-electron system (eV)
  ---------------------------------------------------
  alpha Z        PSCENC =      1624.69313165
  Ewald energy   TEWEN  =    -26710.37146774
  -Hartree energ DENC   =    -11026.29421702
  -exchange      EXHF   =         0.00000000
  -V(xc)+E(xc)   XCENC  =      1510.47905385
  PAW double counting   =     45252.34216372   -44598.14109806
  entropy T*S    EENTRO =         0.00000000
  eigenvalues    EBANDS =     -3813.86952452
  atomic energy  EATOM  =     37080.84622879
  Solvation  Ediel_sol  =         0.00000000
  ---------------------------------------------------
  free energy    TOTEN  =      -680.31572932 eV

  energy without entropy =     -680.31572932  energy(sigma->0) =     -680.31572932


--------------------------------------------------------------------------------------------------------




--------------------------------------- Iteration      1(  10)  ---------------------------------------


    POTLOK:  cpu time    0.0474: real time    0.0612
    SETDIJ:  cpu time    0.0101: real time    0.0103
    EDDIAG:  cpu time    3.9627: real time    3.9624
  RMM-DIIS:  cpu time   18.3047: real time   18.3035
    ORTHCH:  cpu time    0.5612: real time    0.5611
 BZINTS: Fermi energy:  2.807451;464.000000 electrons
         Band energy:***********;  BLOECHL correction:  0.000000
       DOS:  cpu time    0.0085: real time    0.0085
    CHARGE:  cpu time    0.9883: real time    0.9882
    MIXING:  cpu time    0.0013: real time    0.0013
    --------------------------------------------
      LOOP:  cpu time   23.8841: real time   23.8965

 eigenvalue-minimisations  : 32471
 total energy-change (2. order) : 0.5984592E-04  (-0.4198733E-01)
 number of electron     463.9999960 magnetization 
 augmentation part       44.9328144 magnetization 

 Broyden mixing:
  rms(total) = 0.57542E-01    rms(broyden)= 0.57503E-01
  rms(prec ) = 0.65472E-01
  weight for this iteration     100.00

 eigenvalues of (default mixing * dielectric matrix)
  average eigenvalue GAMMA=   1.4228
  2.6187  1.8877  0.9311  0.9311  0.7457

 Free energy of the ion-electron system (eV)
  ---------------------------------------------------
  alpha Z        PSCENC =      1624.69313165
  Ewald energy   TEWEN  =    -26710.37146774
  -Hartree energ DENC   =    -11058.64159611
  -exchange      EXHF   =         0.00000000
  -V(xc)+E(xc)   XCENC  =      1511.95697975
  PAW double counting   =     45338.95838670   -44677.58768144
  entropy T*S    EENTRO =         0.00000000
  eigenvalues    EBANDS =     -3790.16965108
  atomic energy  EATOM  =     37080.84622879
  Solvation  Ediel_sol  =         0.00000000
  ---------------------------------------------------
  free energy    TOTEN  =      -680.31566948 eV

  energy without entropy =     -680.31566948  energy(sigma->0) =     -680.31566948


--------------------------------------------------------------------------------------------------------




--------------------------------------- Iteration      1(  11)  ---------------------------------------


    POTLOK:  cpu time    0.0459: real time    0.0557
    SETDIJ:  cpu time    0.0100: real time    0.0103
    EDDIAG:  cpu time    3.9660: real time    3.9658
  RMM-DIIS:  cpu time   18.4447: real time   18.4437
    ORTHCH:  cpu time    0.5605: real time    0.5604
 BZINTS: Fermi energy:  2.789846;464.000000 electrons
         Band energy:***********;  BLOECHL correction:  0.000000
       DOS:  cpu time    0.0085: real time    0.0085
    CHARGE:  cpu time    0.9798: real time    0.9797
    MIXING:  cpu time    0.0013: real time    0.0013
    --------------------------------------------
      LOOP:  cpu time   24.0166: real time   24.0254

 eigenvalue-minimisations  : 34333
 total energy-change (2. order) :-0.1254286E-01  (-0.1265756E-01)
 number of electron     463.9999960 magnetization 
 augmentation part       44.8634697 magnetization 

 Broyden mixing:
  rms(total) = 0.34218E-01    rms(broyden)= 0.34203E-01
  rms(prec ) = 0.38563E-01
  weight for this iteration     100.00

 eigenvalues of (default mixing * dielectric matrix)
  average eigenvalue GAMMA=   1.4763
  3.0535  1.9529  0.8888  0.8888  1.0370  1.0370

 Free energy of the ion-electron system (eV)
  ---------------------------------------------------
  alpha Z        PSCENC =      1624.69313165
  Ewald energy   TEWEN  =    -26710.37146774
  -Hartree energ DENC   =    -11062.83575534
  -exchange      EXHF   =         0.00000000
  -V(xc)+E(xc)   XCENC  =      1512.15479460
  PAW double counting   =     45404.38535434   -44740.65715680
  entropy T*S    EENTRO =         0.00000000
  eigenvalues    EBANDS =     -3788.54334185
  atomic energy  EATOM  =     37080.84622879
  Solvation  Ediel_sol  =         0.00000000
  ---------------------------------------------------
  free energy    TOTEN  =      -680.32821234 eV

  energy without entropy =     -680.32821234  energy(sigma->0) =     -680.32821234


--------------------------------------------------------------------------------------------------------




--------------------------------------- Iteration      1(  12)  ---------------------------------------


    POTLOK:  cpu time    0.0462: real time    0.0599
    SETDIJ:  cpu time    0.0097: real time    0.0097
    EDDIAG:  cpu time    3.9708: real time    3.9705
  RMM-DIIS:  cpu time   18.4282: real time   18.4270
    ORTHCH:  cpu time    0.5623: real time    0.5622
 BZINTS: Fermi energy:  2.764805;464.000000 electrons
         Band energy:***********;  BLOECHL correction:  0.000000
       DOS:  cpu time    0.0084: real time    0.0084
    CHARGE:  cpu time    0.9823: real time    0.9822
    MIXING:  cpu time    0.0014: real time    0.0014
    --------------------------------------------
      LOOP:  cpu time   24.0093: real time   24.0216

 eigenvalue-minimisations  : 34292
 total energy-change (2. order) :-0.3461872E-02  (-0.4507371E-02)
 number of electron     463.9999960 magnetization 
 augmentation part       44.8181095 magnetization 

 Broyden mixing:
  rms(total) = 0.27785E-01    rms(broyden)= 0.27780E-01
  rms(prec ) = 0.29603E-01
  weight for this iteration     100.00

 eigenvalues of (default mixing * dielectric matrix)
  average eigenvalue GAMMA=   1.5457
  3.3283  2.2075  1.3125  1.3125  0.9363  0.9363  0.7865

 Free energy of the ion-electron system (eV)
  ---------------------------------------------------
  alpha Z        PSCENC =      1624.69313165
  Ewald energy   TEWEN  =    -26710.37146774
  -Hartree energ DENC   =    -11063.77121374
  -exchange      EXHF   =         0.00000000
  -V(xc)+E(xc)   XCENC  =      1512.20312155
  PAW double counting   =     45428.01454356   -44762.46616945
  entropy T*S    EENTRO =         0.00000000
  eigenvalues    EBANDS =     -3789.47984885
  atomic energy  EATOM  =     37080.84622879
  Solvation  Ediel_sol  =         0.00000000
  ---------------------------------------------------
  free energy    TOTEN  =      -680.33167421 eV

  energy without entropy =     -680.33167421  energy(sigma->0) =     -680.33167421


--------------------------------------------------------------------------------------------------------




--------------------------------------- Iteration      1(  13)  ---------------------------------------


    POTLOK:  cpu time    0.0468: real time    0.0643
    SETDIJ:  cpu time    0.0101: real time    0.0103
    EDDIAG:  cpu time    3.9642: real time    3.9639
  RMM-DIIS:  cpu time   19.0275: real time   19.0264
    ORTHCH:  cpu time    0.5596: real time    0.5596
 BZINTS: Fermi energy:  2.911863;464.000000 electrons
         Band energy:***********;  BLOECHL correction:  0.000000
       DOS:  cpu time    0.0099: real time    0.0099
    CHARGE:  cpu time    0.9816: real time    0.9815
    MIXING:  cpu time    0.0014: real time    0.0014
    --------------------------------------------
      LOOP:  cpu time   24.6010: real time   24.6173

 eigenvalue-minimisations  : 34529
 total energy-change (2. order) :-0.9142845E-03  (-0.1657261E-02)
 number of electron     463.9999960 magnetization 
 augmentation part       44.8074966 magnetization 

 Broyden mixing:
  rms(total) = 0.82991E-02    rms(broyden)= 0.82906E-02
  rms(prec ) = 0.10410E-01
  weight for this iteration     100.00

 eigenvalues of (default mixing * dielectric matrix)
  average eigenvalue GAMMA=   1.5226
  2.8530  2.4519  1.6523  1.6523  0.8999  0.8999  0.9672  0.8042

 Free energy of the ion-electron system (eV)
  ---------------------------------------------------
  alpha Z        PSCENC =      1624.69313165
  Ewald energy   TEWEN  =    -26710.37146774
  -Hartree energ DENC   =    -11063.84084471
  -exchange      EXHF   =         0.00000000
  -V(xc)+E(xc)   XCENC  =      1512.15134876
  PAW double counting   =     45436.53778515   -44769.10887923
  entropy T*S    EENTRO =         0.00000000
  eigenvalues    EBANDS =     -3791.23989118
  atomic energy  EATOM  =     37080.84622879
  Solvation  Ediel_sol  =         0.00000000
  ---------------------------------------------------
  free energy    TOTEN  =      -680.33258850 eV

  energy without entropy =     -680.33258850  energy(sigma->0) =     -680.33258850


--------------------------------------------------------------------------------------------------------




--------------------------------------- Iteration      1(  14)  ---------------------------------------


    POTLOK:  cpu time    0.0463: real time    0.0578
    SETDIJ:  cpu time    0.0098: real time    0.0098
    EDDIAG:  cpu time    3.9631: real time    3.9627
  RMM-DIIS:  cpu time   18.4240: real time   18.4229
    ORTHCH:  cpu time    0.5616: real time    0.5615
 BZINTS: Fermi energy:  2.906941;464.000000 electrons
         Band energy:***********;  BLOECHL correction:  0.000000
       DOS:  cpu time    0.0100: real time    0.0100
    CHARGE:  cpu time    0.9800: real time    0.9800
    MIXING:  cpu time    0.0015: real time    0.0015
    --------------------------------------------
      LOOP:  cpu time   23.9963: real time   24.0063

 eigenvalue-minimisations  : 34373
 total energy-change (2. order) :-0.5742882E-03  (-0.7940639E-03)
 number of electron     463.9999960 magnetization 
 augmentation part       44.7854954 magnetization 

 Broyden mixing:
  rms(total) = 0.88031E-02    rms(broyden)= 0.87995E-02
  rms(prec ) = 0.10222E-01
  weight for this iteration     100.00

 eigenvalues of (default mixing * dielectric matrix)
  average eigenvalue GAMMA=   1.4497
  3.1210  2.4948  1.7342  1.7342  0.9021  0.9021  0.9067  0.7734  0.4790

 Free energy of the ion-electron system (eV)
  ---------------------------------------------------
  alpha Z        PSCENC =      1624.69313165
  Ewald energy   TEWEN  =    -26710.37146774
  -Hartree energ DENC   =    -11063.94414348
  -exchange      EXHF   =         0.00000000
  -V(xc)+E(xc)   XCENC  =      1512.17714334
  PAW double counting   =     45437.09473567   -44769.57136031
  entropy T*S    EENTRO =         0.00000000
  eigenvalues    EBANDS =     -3791.25743071
  atomic energy  EATOM  =     37080.84622879
  Solvation  Ediel_sol  =         0.00000000
  ---------------------------------------------------
  free energy    TOTEN  =      -680.33316279 eV

  energy without entropy =     -680.33316279  energy(sigma->0) =     -680.33316279


--------------------------------------------------------------------------------------------------------




--------------------------------------- Iteration      1(  15)  ---------------------------------------


    POTLOK:  cpu time    0.0456: real time    0.0607
    SETDIJ:  cpu time    0.0101: real time    0.0103
    EDDIAG:  cpu time    3.9619: real time    3.9616
  RMM-DIIS:  cpu time   19.2958: real time   19.2945
    ORTHCH:  cpu time    0.5596: real time    0.5595
 BZINTS: Fermi energy:  2.905339;464.000000 electrons
         Band energy:***********;  BLOECHL correction:  0.000000
       DOS:  cpu time    0.0099: real time    0.0099
    CHARGE:  cpu time    0.9802: real time    0.9802
    MIXING:  cpu time    0.0015: real time    0.0015
    --------------------------------------------
      LOOP:  cpu time   24.8646: real time   24.8782

 eigenvalue-minimisations  : 35174
 total energy-change (2. order) :-0.1932544E-03  (-0.2363699E-03)
 number of electron     463.9999960 magnetization 
 augmentation part       44.7767743 magnetization 

 Broyden mixing:
  rms(total) = 0.71497E-02    rms(broyden)= 0.71487E-02
  rms(prec ) = 0.82338E-02
  weight for this iteration     100.00

 eigenvalues of (default mixing * dielectric matrix)
  average eigenvalue GAMMA=   1.4255
  3.4087  2.5245  1.7832  1.7832  0.9075  0.9075  0.8668  0.7826  0.6454  0.6454

 Free energy of the ion-electron system (eV)
  ---------------------------------------------------
  alpha Z        PSCENC =      1624.69313165
  Ewald energy   TEWEN  =    -26710.37146774
  -Hartree energ DENC   =    -11064.28250162
  -exchange      EXHF   =         0.00000000
  -V(xc)+E(xc)   XCENC  =      1512.18664215
  PAW double counting   =     45438.99107046   -44771.19015157
  entropy T*S    EENTRO =         0.00000000
  eigenvalues    EBANDS =     -3791.20630817
  atomic energy  EATOM  =     37080.84622879
  Solvation  Ediel_sol  =         0.00000000
  ---------------------------------------------------
  free energy    TOTEN  =      -680.33335604 eV

  energy without entropy =     -680.33335604  energy(sigma->0) =     -680.33335604


--------------------------------------------------------------------------------------------------------




--------------------------------------- Iteration      1(  16)  ---------------------------------------


    POTLOK:  cpu time    0.0452: real time    0.0550
    SETDIJ:  cpu time    0.0101: real time    0.0103
    EDDIAG:  cpu time    3.9517: real time    3.9514
  RMM-DIIS:  cpu time   19.1969: real time   19.1956
    ORTHCH:  cpu time    0.5587: real time    0.5586
 BZINTS: Fermi energy:  2.902921;464.000000 electrons
         Band energy:***********;  BLOECHL correction:  0.000000
       DOS:  cpu time    0.0099: real time    0.0099
    CHARGE:  cpu time    0.9710: real time    0.9709
    MIXING:  cpu time    0.0016: real time    0.0016
    --------------------------------------------
      LOOP:  cpu time   24.7450: real time   24.7534

 eigenvalue-minimisations  : 34765
 total energy-change (2. order) :-0.6993367E-04  (-0.8880327E-04)
 number of electron     463.9999960 magnetization 
 augmentation part       44.7720674 magnetization 

 Broyden mixing:
  rms(total) = 0.42623E-02    rms(broyden)= 0.42617E-02
  rms(prec ) = 0.47216E-02
  weight for this iteration     100.00

 eigenvalues of (default mixing * dielectric matrix)
  average eigenvalue GAMMA=   1.5796
  3.9264  2.9429  2.3172  1.4359  1.4359  1.0578  1.0578  0.8651  0.8651  0.8639
  0.6072

 Free energy of the ion-electron system (eV)
  ---------------------------------------------------
  alpha Z        PSCENC =      1624.69313165
  Ewald energy   TEWEN  =    -26710.37146774
  -Hartree energ DENC   =    -11064.60817310
  -exchange      EXHF   =         0.00000000
  -V(xc)+E(xc)   XCENC  =      1512.19513350
  PAW double counting   =     45444.52542722   -44776.37664292
  entropy T*S    EENTRO =         0.00000000
  eigenvalues    EBANDS =     -3791.23706339
  atomic energy  EATOM  =     37080.84622879
  Solvation  Ediel_sol  =         0.00000000
  ---------------------------------------------------
  free energy    TOTEN  =      -680.33342597 eV

  energy without entropy =     -680.33342597  energy(sigma->0) =     -680.33342597


--------------------------------------------------------------------------------------------------------




--------------------------------------- Iteration      1(  17)  ---------------------------------------


    POTLOK:  cpu time    0.0457: real time    0.0563
    SETDIJ:  cpu time    0.0097: real time    0.0097
    EDDIAG:  cpu time    3.9674: real time    3.9670
WARNING in EDDRMM: call to ZHEGV failed, returncode =   8  4      3
  RMM-DIIS:  cpu time   19.2111: real time   19.2098
    ORTHCH:  cpu time    0.5630: real time    0.5630
 BZINTS: Fermi energy:  2.899715;464.000000 electrons
         Band energy:***********;  BLOECHL correction:  0.000000
       DOS:  cpu time    0.0099: real time    0.0099
    CHARGE:  cpu time    0.9723: real time    0.9722
    MIXING:  cpu time    0.0017: real time    0.0017
    --------------------------------------------
      LOOP:  cpu time   24.7808: real time   24.7896

 eigenvalue-minimisations  : 34888
 total energy-change (2. order) :-0.3744425E-04  (-0.3403422E-04)
 number of electron     463.9999960 magnetization 
 augmentation part       44.7700301 magnetization 

 Broyden mixing:
  rms(total) = 0.30845E-02    rms(broyden)= 0.30841E-02
  rms(prec ) = 0.32122E-02
  weight for this iteration     100.00

 eigenvalues of (default mixing * dielectric matrix)
  average eigenvalue GAMMA=   1.4913
  3.6093  2.6862  2.2811  1.6186  1.6186  1.0906  0.9082  0.9082  0.8355  0.8355
  0.8457  0.6580

 Free energy of the ion-electron system (eV)
  ---------------------------------------------------
  alpha Z        PSCENC =      1624.69313165
  Ewald energy   TEWEN  =    -26710.37146774
  -Hartree energ DENC   =    -11064.86576823
  -exchange      EXHF   =         0.00000000
  -V(xc)+E(xc)   XCENC  =      1512.20619688
  PAW double counting   =     45455.03817541   -44786.44826678
  entropy T*S    EENTRO =         0.00000000
  eigenvalues    EBANDS =     -3791.43169339
  atomic energy  EATOM  =     37080.84622879
  Solvation  Ediel_sol  =         0.00000000
  ---------------------------------------------------
  free energy    TOTEN  =      -680.33346342 eV

  energy without entropy =     -680.33346342  energy(sigma->0) =     -680.33346342


--------------------------------------------------------------------------------------------------------




--------------------------------------- Iteration      1(  18)  ---------------------------------------


    POTLOK:  cpu time    0.0470: real time    0.0621
    SETDIJ:  cpu time    0.0098: real time    0.0102
    EDDIAG:  cpu time    3.9627: real time    3.9624
WARNING in EDDRMM: call to ZHEGV failed, returncode =   6  3      3
  RMM-DIIS:  cpu time   17.9212: real time   17.9200
    ORTHCH:  cpu time    0.5594: real time    0.5594
 BZINTS: Fermi energy:  2.896845;464.000000 electrons
         Band energy:***********;  BLOECHL correction:  0.000000
       DOS:  cpu time    0.0100: real time    0.0100
    CHARGE:  cpu time    0.9703: real time    0.9702
    MIXING:  cpu time    0.0017: real time    0.0017
    --------------------------------------------
      LOOP:  cpu time   23.4821: real time   23.4960

 eigenvalue-minimisations  : 33189
 total energy-change (2. order) :-0.8873081E-05  (-0.1384282E-04)
 number of electron     463.9999960 magnetization 
 augmentation part       44.7679299 magnetization 

 Broyden mixing:
  rms(total) = 0.11996E-02    rms(broyden)= 0.11993E-02
  rms(prec ) = 0.12203E-02
  weight for this iteration     100.00

 eigenvalues of (default mixing * dielectric matrix)
[...]
 augmentation part       44.7659026 magnetization 

  free energy =  -0.680360642448E+03  energy without entropy=  -0.680360642448E+03


--------------------------------------------------------------------------------------------------------




------------------------ aborting loop because EDIFF is reached ----------------------------------------


    CHARGE:  cpu time    0.9701: real time    0.9701
    FORLOC:  cpu time    0.0160: real time    0.0160
    FORNL :  cpu time    7.5413: real time    7.5412
    STRESS:  cpu time   22.5453: real time   22.5457
    FORCOR:  cpu time    0.0505: real time    0.0506
    FORHAR:  cpu time    0.0227: real time    0.0227
    MIXING:  cpu time    0.0010: real time    0.0010
    OFIELD:  cpu time    0.0000: real time    0.0000

  FORCE on cell =-STRESS in cart. coord.  units (eV):
  Direction    XX          YY          ZZ          XY          YZ          ZX
  --------------------------------------------------------------------------------------
  Alpha Z  1624.69313  1624.69313  1624.69313
  Ewald   -8831.54886 -8761.25679 -9063.13255    47.63704   -36.84864    91.88434
  Hartree  3652.13112  3719.98879  3749.02406    41.12091   -35.10485    83.73427
  E(xc)   -2185.75555 -2185.77823 -2183.42123     0.07866    -0.01869     0.00270
  Local   -2722.81216 -2860.87922 -2597.12845   -89.00641    71.98320  -175.76570
  n-local -1207.44754 -1207.25828 -1196.46121    -0.54399     0.04468    -0.23402
  augment   515.43731   515.40362   511.91584     0.07897    -0.00812     0.01979
  Kinetic  9148.82140  9148.60938  9147.93587     0.63700    -0.04766     0.36063
  Fock        0.00000     0.00000     0.00000     0.00000     0.00000     0.00000
  -------------------------------------------------------------------------------------
  Total      -6.48116    -6.47759    -6.57454     0.00219    -0.00008     0.00200
  in kB     -12.26037   -12.25363   -12.43702     0.00415    -0.00015     0.00379
  external pressure =      -12.32 kB  Pullay stress =        0.00 kB



--------------------------------------------------------------------------------------------------------



  FREE ENERGIE OF THE ION-ELECTRON SYSTEM (eV)
  ---------------------------------------------------
  free  energy   TOTEN  =      -680.36064245 eV

  energy  without entropy=     -680.36064245  energy(sigma->0) =     -680.36064245
 
 d Force =-0.3687566E-04[-0.501E-04,-0.237E-04]  d Energy =-0.1349565E-04-0.234E-04
 d Force =-0.1157591E+01[-0.116E+01,-0.116E+01]  d Ewald  =-0.1119731E+01-0.379E-01


--------------------------------------------------------------------------------------------------------


    POTLOK:  cpu time    0.0552: real time    0.0552


--------------------------------------------------------------------------------------------------------


 Quasi-Newton relaxation of ions (Broydens 2nd method)
  g(Force)  = 0.165E-04   g(Stress)= 0.110E-05

 retain information from N=  1 steps
 eigenvalues of (default step * inverse Hessian matrix)
  average eigenvalue of G=   7.2528
 eigenvalue spectrum of G is  7.2528


--------------------------------------------------------------------------------------------------------


    WAVPRE:  cpu time    0.0234: real time    0.0583
    FEWALD:  cpu time    0.0021: real time    0.0024
    GENKIN:  cpu time    0.2009: real time    0.2009
    ORTHCH:  cpu time    2.9778: real time    2.9778
     LOOP+:  cpu time  144.7808: real time  144.8936


--------------------------------------- Iteration     10(   1)  ---------------------------------------


    POTLOK:  cpu time    0.0711: real time    0.0736
    SETDIJ:  cpu time    0.0107: real time    0.0107
     EDDAV:  cpu time   35.1203: real time   35.1210
 BZINTS: Fermi energy:  2.767535;464.000000 electrons
         Band energy:***********;  BLOECHL correction:  0.000000
       DOS:  cpu time    0.0094: real time    0.0094
    CHARGE:  cpu time    0.9726: real time    0.9725
    MIXING:  cpu time    0.0010: real time    0.0010
    --------------------------------------------
      LOOP:  cpu time   36.1851: real time   36.1883

 eigenvalue-minimisations  : 28512
 total energy-change (2. order) :-0.1379590E-04  (-0.1139010E-03)
 number of electron     464.0000002 magnetization 
 augmentation part       44.7654969 magnetization 

  free energy =  -0.680360656173E+03  energy without entropy=  -0.680360656173E+03


--------------------------------------------------------------------------------------------------------




--------------------------------------- Iteration     10(   2)  ---------------------------------------


    POTLOK:  cpu time    0.0451: real time    0.0546
    SETDIJ:  cpu time    0.0100: real time    0.0102
    EDDIAG:  cpu time    3.9481: real time    3.9481
  RMM-DIIS:  cpu time   13.9714: real time   13.9715
    ORTHCH:  cpu time    0.5595: real time    0.5595
 BZINTS: Fermi energy:  2.767318;464.000000 electrons
         Band energy:***********;  BLOECHL correction:  0.000000
       DOS:  cpu time    0.0084: real time    0.0084
    CHARGE:  cpu time    0.9701: real time    0.9701
    MIXING:  cpu time    0.0012: real time    0.0012
    --------------------------------------------
      LOOP:  cpu time   19.5137: real time   19.5237

 eigenvalue-minimisations  : 24388
 total energy-change (2. order) :-0.2263187E-05  (-0.2851158E-05)
 number of electron     464.0000002 magnetization 
 augmentation part       44.7654744 magnetization 

 eigenvalues of (default mixing * dielectric matrix)
  average eigenvalue GAMMA=   1.1476
  1.1476

  free energy =  -0.680360658436E+03  energy without entropy=  -0.680360658436E+03


--------------------------------------------------------------------------------------------------------




--------------------------------------- Iteration     10(   3)  ---------------------------------------


    POTLOK:  cpu time    0.0458: real time    0.0596
    SETDIJ:  cpu time    0.0101: real time    0.0101
    EDDIAG:  cpu time    3.9602: real time    3.9603
  RMM-DIIS:  cpu time    8.0967: real time    8.0967
    ORTHCH:  cpu time    0.5629: real time    0.5629
 BZINTS: Fermi energy:  2.767276;464.000000 electrons
         Band energy:***********;  BLOECHL correction:  0.000000
       DOS:  cpu time    0.0084: real time    0.0084
    CHARGE:  cpu time    0.9698: real time    0.9698
    MIXING:  cpu time    0.0011: real time    0.0011
    --------------------------------------------
      LOOP:  cpu time   13.6549: real time   13.6689

 eigenvalue-minimisations  : 12110
 total energy-change (2. order) : 0.3686582E-06  (-0.9047745E-07)
 number of electron     464.0000002 magnetization 
 augmentation part       44.7655000 magnetization 

 eigenvalues of (default mixing * dielectric matrix)
  average eigenvalue GAMMA=   1.4999
  1.1256  1.8741

  free energy =  -0.680360658067E+03  energy without entropy=  -0.680360658067E+03


--------------------------------------------------------------------------------------------------------




--------------------------------------- Iteration     10(   4)  ---------------------------------------


    POTLOK:  cpu time    0.0450: real time    0.0609
    SETDIJ:  cpu time    0.0098: real time    0.0098
    EDDIAG:  cpu time    3.9516: real time    3.9516
  RMM-DIIS:  cpu time    9.3579: real time    9.3579
    ORTHCH:  cpu time    0.5568: real time    0.5569
 BZINTS: Fermi energy:  2.767232;464.000000 electrons
         Band energy:***********;  BLOECHL correction:  0.000000
       DOS:  cpu time    0.0084: real time    0.0084
    --------------------------------------------
      LOOP:  cpu time   13.9296: real time   13.9455

 eigenvalue-minimisations  : 12329
 total energy-change (2. order) :-0.2350862E-07  (-0.1044407E-06)
 number of electron     464.0000002 magnetization 
 augmentation part       44.7655000 magnetization 

  free energy =  -0.680360658091E+03  energy without entropy=  -0.680360658091E+03


--------------------------------------------------------------------------------------------------------




------------------------ aborting loop because EDIFF is reached ----------------------------------------


    CHARGE:  cpu time    0.9717: real time    0.9717
    FORLOC:  cpu time    0.0159: real time    0.0159
    FORNL :  cpu time    7.5146: real time    7.5146
    STRESS:  cpu time   22.5650: real time   22.5650
    FORCOR:  cpu time    0.0504: real time    0.0504
    FORHAR:  cpu time    0.0227: real time    0.0227
    MIXING:  cpu time    0.0010: real time    0.0010
    OFIELD:  cpu time    0.0000: real time    0.0000

  FORCE on cell =-STRESS in cart. coord.  units (eV):
  Direction    XX          YY          ZZ          XY          YZ          ZX
  --------------------------------------------------------------------------------------
  Alpha Z  1624.69313  1624.69313  1624.69313
  Ewald   -8831.40664 -8761.14128 -9063.58004    47.62397   -36.85274    91.88565
  Hartree  3652.13176  3719.97904  3748.84763    41.12003   -35.10785    83.73315
  E(xc)   -2185.75325 -2185.77585 -2183.41625     0.07873    -0.01877     0.00303
  Local   -2722.95317 -2860.98308 -2596.49881   -88.99261    71.99064  -175.76677
  n-local -1207.46857 -1207.27877 -1196.46298    -0.54393     0.04493    -0.23526
  augment   515.43314   515.39925   511.90837     0.07882    -0.00821     0.01992
  Kinetic  9148.81954  9148.60594  9147.94384     0.63602    -0.04819     0.36104
  Fock        0.00000     0.00000     0.00000     0.00000     0.00000     0.00000
  -------------------------------------------------------------------------------------
  Total      -6.50406    -6.50162    -6.56511     0.00104    -0.00018     0.00076
  in kB     -12.30369   -12.29908   -12.41920     0.00198    -0.00035     0.00144
  external pressure =      -12.34 kB  Pullay stress =        0.00 kB



--------------------------------------------------------------------------------------------------------



  FREE ENERGIE OF THE ION-ELECTRON SYSTEM (eV)
  ---------------------------------------------------
  free  energy   TOTEN  =      -680.36065809 eV

  energy  without entropy=     -680.36065809  energy(sigma->0) =     -680.36065809
 
 d Force = 0.1501383E-04[ 0.141E-04, 0.160E-04]  d Energy = 0.1564260E-04-0.629E-06
 d Force = 0.1861660E+00[ 0.186E+00, 0.186E+00]  d Ewald  = 0.1897741E+00-0.361E-02


--------------------------------------------------------------------------------------------------------


    POTLOK:  cpu time    0.0547: real time    0.0547


--------------------------------------------------------------------------------------------------------


 Quasi-Newton relaxation of ions (Broydens 2nd method)
  g(Force)  = 0.130E-04   g(Stress)= 0.469E-06

 retain information from N=  1 steps
 eigenvalues of (default step * inverse Hessian matrix)
  average eigenvalue of G=   3.3136
 eigenvalue spectrum of G is  3.3136


--------------------------------------------------------------------------------------------------------


    WAVPRE:  cpu time    0.0234: real time    0.0327
    FEWALD:  cpu time    0.0022: real time    0.0025
    GENKIN:  cpu time    0.2006: real time    0.2006
    ORTHCH:  cpu time    2.9758: real time    2.9758
     LOOP+:  cpu time  117.7533: real time  117.8247


--------------------------------------- Iteration     11(   1)  ---------------------------------------


    POTLOK:  cpu time    0.0632: real time    0.0657
    SETDIJ:  cpu time    0.0111: real time    0.0111
     EDDAV:  cpu time   35.1749: real time   35.1756
 BZINTS: Fermi energy:  2.766781;464.000000 electrons
         Band energy:***********;  BLOECHL correction:  0.000000
       DOS:  cpu time    0.0094: real time    0.0094
    CHARGE:  cpu time    0.9706: real time    0.9706
    MIXING:  cpu time    0.0009: real time    0.0009
    --------------------------------------------
      LOOP:  cpu time   36.2302: real time   36.2333

 eigenvalue-minimisations  : 28512
 total energy-change (2. order) :-0.1584351E-04  (-0.1338542E-02)
 number of electron     464.0000001 magnetization 
 augmentation part       44.7648325 magnetization 

  free energy =  -0.680360673911E+03  energy without entropy=  -0.680360673911E+03


--------------------------------------------------------------------------------------------------------




--------------------------------------- Iteration     11(   2)  ---------------------------------------


    POTLOK:  cpu time    0.0448: real time    0.0554
    SETDIJ:  cpu time    0.0099: real time    0.0102
    EDDIAG:  cpu time    3.9521: real time    3.9520
  RMM-DIIS:  cpu time   13.0625: real time   13.0627
    ORTHCH:  cpu time    0.5556: real time    0.5556
 BZINTS: Fermi energy:  2.766587;464.000000 electrons
         Band energy:***********;  BLOECHL correction:  0.000000
       DOS:  cpu time    0.0084: real time    0.0084
    CHARGE:  cpu time    0.9715: real time    0.9715
    MIXING:  cpu time    0.0011: real time    0.0011
    --------------------------------------------
      LOOP:  cpu time   18.6060: real time   18.6169

 eigenvalue-minimisations  : 22402
 total energy-change (2. order) :-0.2355689E-04  (-0.2856635E-04)
 number of electron     464.0000001 magnetization 
 augmentation part       44.7649189 magnetization 

 eigenvalues of (default mixing * dielectric matrix)
  average eigenvalue GAMMA=   1.1155
  1.1155

  free energy =  -0.680360697467E+03  energy without entropy=  -0.680360697467E+03


--------------------------------------------------------------------------------------------------------




--------------------------------------- Iteration     11(   3)  ---------------------------------------


    POTLOK:  cpu time    0.0449: real time    0.0581
    SETDIJ:  cpu time    0.0098: real time    0.0098
    EDDIAG:  cpu time    3.9490: real time    3.9492
  RMM-DIIS:  cpu time   13.5940: real time   13.5941
    ORTHCH:  cpu time    0.5551: real time    0.5551
 BZINTS: Fermi energy:  2.766508;464.000000 electrons
         Band energy:***********;  BLOECHL correction:  0.000000
       DOS:  cpu time    0.0084: real time    0.0084
    CHARGE:  cpu time    0.9710: real time    0.9710
    MIXING:  cpu time    0.0011: real time    0.0011
    --------------------------------------------
      LOOP:  cpu time   19.1332: real time   19.1468

 eigenvalue-minimisations  : 22809
 total energy-change (2. order) : 0.2870016E-05  (-0.1446594E-05)
 number of electron     464.0000001 magnetization 
 augmentation part       44.7651074 magnetization 

 eigenvalues of (default mixing * dielectric matrix)
  average eigenvalue GAMMA=   1.6139
  1.1161  2.1117

  free energy =  -0.680360694597E+03  energy without entropy=  -0.680360694597E+03


--------------------------------------------------------------------------------------------------------




--------------------------------------- Iteration     11(   4)  ---------------------------------------


    POTLOK:  cpu time    0.0450: real time    0.0599
    SETDIJ:  cpu time    0.0098: real time    0.0098
    EDDIAG:  cpu time    3.9486: real time    3.9486
  RMM-DIIS:  cpu time   12.3937: real time   12.3939
    ORTHCH:  cpu time    0.5565: real time    0.5565
 BZINTS: Fermi energy:  2.766429;464.000000 electrons
         Band energy:***********;  BLOECHL correction:  0.000000
       DOS:  cpu time    0.0084: real time    0.0084
    --------------------------------------------
      LOOP:  cpu time   16.9620: real time   16.9770

 eigenvalue-minimisations  : 19615
 total energy-change (2. order) : 0.6547634E-06  (-0.4733360E-06)
 number of electron     464.0000001 magnetization 
 augmentation part       44.7651074 magnetization 

  free energy =  -0.680360693943E+03  energy without entropy=  -0.680360693943E+03


--------------------------------------------------------------------------------------------------------




------------------------ aborting loop because EDIFF is reached ----------------------------------------


    CHARGE:  cpu time    0.9684: real time    0.9684
    FORLOC:  cpu time    0.0160: real time    0.0160
    FORNL :  cpu time    7.5211: real time    7.5211
    STRESS:  cpu time   22.5680: real time   22.5686
    FORCOR:  cpu time    0.0508: real time    0.0508
    FORHAR:  cpu time    0.0226: real time    0.0226
    MIXING:  cpu time    0.0011: real time    0.0011
    OFIELD:  cpu time    0.0000: real time    0.0000

  FORCE on cell =-STRESS in cart. coord.  units (eV):
  Direction    XX          YY          ZZ          XY          YZ          ZX
  --------------------------------------------------------------------------------------
  Alpha Z  1624.69313  1624.69313  1624.69313
  Ewald   -8831.07377 -8760.89128 -9064.88866    47.61480   -36.87232    91.90714
  Hartree  3652.05856  3719.87036  3748.30999    41.13426   -35.12074    83.73959
  E(xc)   -2185.74216 -2185.76446 -2183.39906     0.07887    -0.01896     0.00399
  Local   -2723.21412 -2861.12684 -2594.68485   -88.99872    72.02423  -175.79767
  n-local -1207.48238 -1207.29358 -1196.47488    -0.54401     0.04452    -0.23805
  augment   515.43483   515.40058   511.90731     0.07860    -0.00844     0.02048
  Kinetic  9148.74339  9148.52729  9147.96614     0.63464    -0.04922     0.36354
  Fock        0.00000     0.00000     0.00000     0.00000     0.00000     0.00000
  -------------------------------------------------------------------------------------
  Total      -6.58251    -6.58480    -6.57088    -0.00157    -0.00092    -0.00097
  in kB     -12.45211   -12.45644   -12.43010    -0.00297    -0.00174    -0.00184
  external pressure =      -12.45 kB  Pullay stress =        0.00 kB



--------------------------------------------------------------------------------------------------------



  FREE ENERGIE OF THE ION-ELECTRON SYSTEM (eV)
  ---------------------------------------------------
  free  energy   TOTEN  =      -680.36069394 eV

  energy  without entropy=     -680.36069394  energy(sigma->0) =     -680.36069394
 
 d Force = 0.3867959E-04[ 0.287E-04, 0.486E-04]  d Energy = 0.3585211E-04 0.283E-05
 d Force = 0.7166553E+00[ 0.717E+00, 0.717E+00]  d Ewald  = 0.7257996E+00-0.914E-02


--------------------------------------------------------------------------------------------------------


    POTLOK:  cpu time    0.0549: real time    0.0551


--------------------------------------------------------------------------------------------------------


 Quasi-Newton relaxation of ions (Broydens 2nd method)
  g(Force)  = 0.500E-05   g(Stress)= 0.217E-07

 retain information from N=  1 steps
 eigenvalues of (default step * inverse Hessian matrix)
  average eigenvalue of G=   3.7794
 eigenvalue spectrum of G is  3.7794


--------------------------------------------------------------------------------------------------------


  
 reached required accuracy - stopping structural energy minimisation
     LOOP+:  cpu time  122.1998: real time  122.2663
    4ORBIT:  cpu time    0.0000: real time    0.0000

 total amount of memory used by VASP MPI-rank0   177869. kBytes
=======================================================================

   base      :      30000. kBytes
   nonlr-proj:      67944. kBytes
   fftplans  :       4575. kBytes
   grid      :      26165. kBytes
   one-center:       1244. kBytes
   wavefun   :      47941. kBytes
 
  
  
 General timing and accounting informations for this job:
 ========================================================
  
                  Total CPU time used (sec):     2310.589
                            User time (sec):     2274.146
                          System time (sec):       36.443
                         Elapsed time (sec):     2313.192
  
                   Maximum memory used (kb):      417768.
                   Average memory used (kb):           0.
  
                          Minor page faults:      7792121
                          Major page faults:            0
                 Voluntary context switches:        29623
