<?xml version="1.0" encoding="ISO-8859-1"?>
<modeling>
 <generator>
  <i name="program" type="string">vasp </i>
  <i name="version" type="string">5.4.4.18Apr17-6-g9f103f2a35  </i>
  <i name="subversion" type="string">(build Mar 05 2020 17:21:05) complex            parallel </i>
  <i name="platform" type="string">Linux justhpc1_p2018-05-16 </i>
  <i name="date" type="string">2024 04 10 </i>
  <i name="time" type="string">19:52:04 </i>
 </generator>
 <incar>
  <i type="string" name="SYSTEM"> Li(NbTa)O_3</i>
  <i type="int" name="ISTART">     0</i>
  <i type="string" name="PREC">accurate</i>
  <i type="string" name="ALGO">  Fast</i>
  <i name="AMIX">      0.40000000</i>
  <i name="AMIN">      0.10000000</i>
  <i type="int" name="ICHARG">     2</i>
  <i type="int" name="INIWAV">     1</i>
  <i type="int" name="NELM">  1000</i>
  <i type="int" name="NELMIN">     4</i>
  <i type="int" name="IBRION">     1</i>
  <i name="EDIFF">      0.00000100</i>
  <i name="EDIFFG">     -0.00500000</i>
  <i type="int" name="NSW">   200</i>
  <i type="int" name="ISIF">     4</i>
  <i name="ENCUT">    475.00000000</i>
  <i name="POTIM">      0.15000000</i>
  <i type="string" name="LREAL">    A</i>
  <i type="int" name="ISMEAR">    -5</i>
  <i name="SIGMA">      0.05000000</i>
  <i type="int" name="NWRITE">     0</i>
  <i type="logical" name="LWAVE"> F  </i>
  <i type="logical" name="LCHARG"> F  </i>
  <i type="logical" name="LVTOT"> F  </i>
  <i type="logical" name="LVHAR"> F  </i>
  <i type="logical" name="LELF"> F  </i>
  <v type="int" name="KPOINT_BSE">    -1     0     0     0</v>
  <i type="int" name="NELM">  1000</i>
  <i type="string" name="GGA"> PS</i>
 </incar>
 <structure name="primitive_cell" >
  <crystal>
   <varray name="basis" >
    <v>       5.15062953      -2.97212168       9.22197858 </v>
    <v>       0.00247294       5.94583037       9.22111589 </v>
    <v>      -5.14802253      -2.97347203       9.22009452 </v>
   </varray>
   <i name="volume">    846.95310641 </i>
   <varray name="rec_basis" >
    <v>       0.09710083      -0.05607549       0.03613177 </v>
    <v>      -0.00002131       0.11212456       0.03614817 </v>
    <v>      -0.09709935      -0.05605003       0.03616743 </v>
   </varray>
  </crystal>
  <varray name="positions" >
   <v>       0.13834752       0.13936271       0.13984335 </v>
   <v>       0.30515946       0.11079423      -0.06809337 </v>
   <v>       0.11018018      -0.06879723       0.30647725 </v>
   <v>      -0.06905013       0.30643726       0.10970186 </v>
   <v>       0.05623360       0.18120304       0.36059596 </v>
   <v>       0.18067803       0.36043515       0.05635112 </v>
   <v>       0.36055215       0.05618073       0.18135900 </v>
   <v>       0.24862253       0.24992729       0.24762435 </v>
   <v>      -0.00061676       0.00003493       0.49763958 </v>
   <v>      -0.00250010       0.49794372       0.00086033 </v>
   <v>       0.49988249      -0.00261528       0.00090131 </v>
   <v>      -0.19337261       0.10979363       0.43135599 </v>
   <v>       0.43096027      -0.19329050       0.10983535 </v>
   <v>       0.11066152       0.43074915      -0.19460356 </v>
   <v>       0.25168038       0.24891337      -0.25040483 </v>
   <v>      -0.25269028       0.24776208       0.24918815 </v>
   <v>       0.24806756      -0.25193469       0.24849505 </v>
   <v>      -0.13900432       0.05588109       0.18065345 </v>
   <v>       0.18040413      -0.13909628       0.05629587 </v>
   <v>       0.05540035       0.18155956      -0.13965962 </v>
   <v>      -0.10895576       0.39188824      -0.11006009 </v>
   <v>       0.39066873      -0.10877522      -0.10982588 </v>
   <v>      -0.11047756      -0.10980384       0.39154151 </v>
   <v>       0.38998511      -0.10977024       0.39046082 </v>
   <v>      -0.10918121       0.39199278       0.39127564 </v>
   <v>       0.39173469       0.39088444      -0.10940012 </v>
   <v>      -0.00040763       0.00150112      -0.00324828 </v>
   <v>      -0.13992542      -0.44365171       0.18046819 </v>
   <v>       0.18050111      -0.13926661      -0.44374241 </v>
   <v>      -0.44374507       0.18016866      -0.13917796 </v>
   <v>       0.10933811       0.43208088       0.30572184 </v>
   <v>       0.30616879       0.11038237       0.43144631 </v>
   <v>       0.43164615       0.30579781       0.11007695 </v>
   <v>      -0.06861027      -0.19460936      -0.38915746 </v>
   <v>      -0.19415364      -0.38916703      -0.06990609 </v>
   <v>      -0.38975637      -0.06865989      -0.19428568 </v>
   <v>       0.35943918       0.05639020      -0.31796545 </v>
   <v>      -0.31905839       0.36072792       0.05606070 </v>
   <v>       0.05604537      -0.31923144       0.36081137 </v>
   <v>      -0.38984081       0.43137998       0.30635721 </v>
   <v>       0.43176800       0.30520898      -0.38895871 </v>
   <v>       0.30631393      -0.39036548       0.43142758 </v>
   <v>      -0.13939540       0.05601788      -0.31945939 </v>
   <v>       0.05642617      -0.32016891      -0.13927708 </v>
   <v>      -0.31892800      -0.13953226       0.05575260 </v>
   <v>      -0.44445923      -0.31816567       0.36007734 </v>
   <v>      -0.31943661       0.36084158      -0.44373941 </v>
   <v>       0.36082901      -0.44378709      -0.31960064 </v>
   <v>      -0.35955392       0.13979598      -0.36104116 </v>
   <v>      -0.36012932      -0.35949036       0.14005521 </v>
   <v>       0.14027342      -0.36143308      -0.36057710 </v>
   <v>      -0.44331040       0.18089021       0.36049958 </v>
   <v>       0.36061507      -0.44381848       0.18081868 </v>
   <v>       0.18159346       0.36067916      -0.44443328 </v>
   <v>      -0.06871227       0.30623948      -0.39020555 </v>
   <v>       0.30592914      -0.39026941      -0.06842438 </v>
   <v>      -0.38932248      -0.06834703       0.30547765 </v>
   <v>       0.14028321       0.14032414      -0.35907876 </v>
   <v>      -0.36031050       0.14081636       0.13851063 </v>
   <v>       0.14005761      -0.36085585       0.13990376 </v>
   <v>      -0.19376884       0.10929440      -0.06852055 </v>
   <v>       0.10974163      -0.06923313      -0.19337096 </v>
   <v>      -0.06863886      -0.19507418       0.11095065 </v>
   <v>      -0.31902069      -0.14027494      -0.44344507 </v>
   <v>      -0.13940492      -0.44418373      -0.31949283 </v>
   <v>      -0.44443032      -0.31917978      -0.13909459 </v>
   <v>      -0.19496216      -0.38925698       0.43111591 </v>
   <v>       0.43105925      -0.19361902      -0.39007314 </v>
   <v>      -0.38991387       0.43101265      -0.19363503 </v>
   <v>       0.24752603      -0.25254119      -0.25065840 </v>
   <v>      -0.25165012       0.24827406      -0.25167126 </v>
   <v>       0.49985523      -0.49870242       0.49655071 </v>
   <v>      -0.24902685      -0.25057531       0.24984287 </v>
   <v>       0.49682629      -0.00232810      -0.49984566 </v>
   <v>       0.00052440       0.49715140      -0.49911933 </v>
   <v>       0.49954620      -0.49996032      -0.00214243 </v>
   <v>      -0.25059786      -0.24904122      -0.25197652 </v>
   <v>       0.39146324       0.38999630       0.39085144 </v>
   <v>      -0.10896892      -0.10923924      -0.10865368 </v>
   <v>      -0.35904566      -0.35991442      -0.35855301 </v>
  </varray>
 </structure>
 <varray name="primitive_index" >
  <v type="int" >        1 </v>
  <v type="int" >       38 </v>
  <v type="int" >       43 </v>
  <v type="int" >       54 </v>
  <v type="int" >       27 </v>
  <v type="int" >       29 </v>
  <v type="int" >       28 </v>
  <v type="int" >       75 </v>
  <v type="int" >       18 </v>
  <v type="int" >       20 </v>
  <v type="int" >       22 </v>
  <v type="int" >       56 </v>
  <v type="int" >       42 </v>
  <v type="int" >       37 </v>
  <v type="int" >       19 </v>
  <v type="int" >       78 </v>
  <v type="int" >       76 </v>
  <v type="int" >       52 </v>
  <v type="int" >       41 </v>
  <v type="int" >       33 </v>
  <v type="int" >       12 </v>
  <v type="int" >        8 </v>
  <v type="int" >       14 </v>
  <v type="int" >        6 </v>
  <v type="int" >       10 </v>
  <v type="int" >        4 </v>
  <v type="int" >       17 </v>
  <v type="int" >       64 </v>
  <v type="int" >       47 </v>
  <v type="int" >       57 </v>
  <v type="int" >       31 </v>
  <v type="int" >       32 </v>
  <v type="int" >       30 </v>
  <v type="int" >       72 </v>
  <v type="int" >       74 </v>
  <v type="int" >       73 </v>
  <v type="int" >       34 </v>
  <v type="int" >       53 </v>
  <v type="int" >       39 </v>
  <v type="int" >       55 </v>
  <v type="int" >       36 </v>
  <v type="int" >       44 </v>
  <v type="int" >       58 </v>
  <v type="int" >       45 </v>
  <v type="int" >       65 </v>
  <v type="int" >       63 </v>
  <v type="int" >       59 </v>
  <v type="int" >       46 </v>
  <v type="int" >       11 </v>
  <v type="int" >       13 </v>
  <v type="int" >        7 </v>
  <v type="int" >       51 </v>
  <v type="int" >       40 </v>
  <v type="int" >       35 </v>
  <v type="int" >       60 </v>
  <v type="int" >       50 </v>
  <v type="int" >       67 </v>
  <v type="int" >        3 </v>
  <v type="int" >        9 </v>
  <v type="int" >        5 </v>
  <v type="int" >       62 </v>
  <v type="int" >       49 </v>
  <v type="int" >       66 </v>
  <v type="int" >       71 </v>
  <v type="int" >       70 </v>
  <v type="int" >       69 </v>
  <v type="int" >       68 </v>
  <v type="int" >       48 </v>
  <v type="int" >       61 </v>
  <v type="int" >       77 </v>
  <v type="int" >       80 </v>
  <v type="int" >       25 </v>
  <v type="int" >       24 </v>
  <v type="int" >       79 </v>
  <v type="int" >       21 </v>
  <v type="int" >       23 </v>
  <v type="int" >       26 </v>
  <v type="int" >        2 </v>
  <v type="int" >       16 </v>
  <v type="int" >       15 </v>
 </varray>
 <kpoints>
  <generation param="Gamma">
   <v type="int" name="divisions">       4        4        4 </v>
   <v name="usershift">      0.00000000       0.00000000       0.00000000 </v>
   <v name="genvec1">      0.25000000       0.00000000       0.00000000 </v>
   <v name="genvec2">      0.00000000       0.25000000       0.00000000 </v>
   <v name="genvec3">      0.00000000       0.00000000       0.25000000 </v>
   <v name="shift">      0.00000000       0.00000000       0.00000000 </v>
  </generation>
  <varray name="kpointlist" >
   <v>       0.00000000       0.00000000       0.00000000 </v>
   <v>       0.25000000       0.00000000       0.00000000 </v>
   <v>       0.50000000       0.00000000       0.00000000 </v>
   <v>       0.00000000       0.25000000       0.00000000 </v>
   <v>       0.25000000       0.25000000       0.00000000 </v>
   <v>       0.50000000       0.25000000       0.00000000 </v>
   <v>      -0.25000000       0.25000000      -0.00000000 </v>
   <v>       0.00000000       0.50000000       0.00000000 </v>
   <v>       0.25000000       0.50000000       0.00000000 </v>
   <v>       0.50000000       0.50000000       0.00000000 </v>
   <v>       0.00000000      -0.00000000       0.25000000 </v>
   <v>       0.25000000      -0.00000000       0.25000000 </v>
   <v>       0.50000000      -0.00000000       0.25000000 </v>
   <v>      -0.25000000      -0.00000000       0.25000000 </v>
   <v>       0.00000000       0.25000000       0.25000000 </v>
   <v>       0.25000000       0.25000000       0.25000000 </v>
   <v>       0.50000000       0.25000000       0.25000000 </v>
   <v>      -0.25000000       0.25000000       0.25000000 </v>
   <v>       0.00000000       0.50000000       0.25000000 </v>
   <v>       0.25000000       0.50000000       0.25000000 </v>
   <v>       0.50000000       0.50000000       0.25000000 </v>
   <v>      -0.25000000       0.50000000       0.25000000 </v>
   <v>       0.00000000      -0.25000000       0.25000000 </v>
   <v>       0.25000000      -0.25000000       0.25000000 </v>
   <v>       0.50000000      -0.25000000       0.25000000 </v>
   <v>      -0.25000000      -0.25000000       0.25000000 </v>
   <v>       0.00000000      -0.00000000       0.50000000 </v>
   <v>       0.25000000      -0.00000000       0.50000000 </v>
   <v>       0.50000000      -0.00000000       0.50000000 </v>
   <v>       0.00000000       0.25000000       0.50000000 </v>
   <v>       0.25000000       0.25000000       0.50000000 </v>
   <v>       0.50000000       0.25000000       0.50000000 </v>
   <v>      -0.25000000       0.25000000       0.50000000 </v>
   <v>       0.00000000       0.50000000       0.50000000 </v>
   <v>       0.25000000       0.50000000       0.50000000 </v>
   <v>       0.50000000       0.50000000       0.50000000 </v>
  </varray>
  <varray name="weights" >
   <v>       0.01562500 </v>
   <v>       0.03125000 </v>
   <v>       0.01562500 </v>
   <v>       0.03125000 </v>
   <v>       0.03125000 </v>
   <v>       0.03125000 </v>
   <v>       0.03125000 </v>
   <v>       0.01562500 </v>
   <v>       0.03125000 </v>
   <v>       0.01562500 </v>
   <v>       0.03125000 </v>
   <v>       0.03125000 </v>
   <v>       0.03125000 </v>
   <v>       0.03125000 </v>
   <v>       0.03125000 </v>
   <v>       0.03125000 </v>
   <v>       0.03125000 </v>
   <v>       0.03125000 </v>
   <v>       0.03125000 </v>
   <v>       0.03125000 </v>
   <v>       0.03125000 </v>
   <v>       0.03125000 </v>
   <v>       0.03125000 </v>
   <v>       0.03125000 </v>
   <v>       0.03125000 </v>
   <v>       0.03125000 </v>
   <v>       0.01562500 </v>
   <v>       0.03125000 </v>
   <v>       0.01562500 </v>
   <v>       0.03125000 </v>
   <v>       0.03125000 </v>
   <v>       0.03125000 </v>
   <v>       0.03125000 </v>
   <v>       0.01562500 </v>
   <v>       0.03125000 </v>
   <v>       0.01562500 </v>
  </varray>
  <varray name="tetrahedronlist"  type="int" >
   <v type="int" >        2        1        4        5       16 </v>
   <v type="int" >        2        1        2        5       16 </v>
   <v type="int" >        2        1        2       12       16 </v>
   <v type="int" >        2        1        4       15       16 </v>
   <v type="int" >        2        1       11       15       16 </v>
   <v type="int" >        2        1       11       12       16 </v>
   <v type="int" >        2        2        5        6       17 </v>
   <v type="int" >        2        2        3        6       17 </v>
   <v type="int" >        2        2        3       13       17 </v>
   <v type="int" >        2        2        5       16       17 </v>
   <v type="int" >        2        2       12       16       17 </v>
   <v type="int" >        2        2       12       13       17 </v>
   <v type="int" >        2        3        6        7       18 </v>
   <v type="int" >        2        2        3        7       18 </v>
   <v type="int" >        2        2        3       14       18 </v>
   <v type="int" >        2        3        6       17       18 </v>
   <v type="int" >        2        3       13       17       18 </v>
   <v type="int" >        2        3       13       14       18 </v>
   <v type="int" >        2        2        4        7       15 </v>
   <v type="int" >        2        1        2        4       15 </v>
   <v type="int" >        2        1        2       11       15 </v>
   <v type="int" >        2        2        7       15       18 </v>
   <v type="int" >        2        2       14       15       18 </v>
   <v type="int" >        2        2       11       14       15 </v>
   <v type="int" >        2        4        8        9       20 </v>
   <v type="int" >        2        4        5        9       20 </v>
   <v type="int" >        2        4        5       16       20 </v>
   <v type="int" >        2        4        8       19       20 </v>
   <v type="int" >        2        4       15       19       20 </v>
   <v type="int" >        2        4       15       16       20 </v>
   <v type="int" >        2        5        9       10       21 </v>
   <v type="int" >        2        5        6       10       21 </v>
   <v type="int" >        2        5        6       17       21 </v>
   <v type="int" >        2        5        9       20       21 </v>
   <v type="int" >        2        5       16       20       21 </v>
   <v type="int" >        2        5       16       17       21 </v>
   <v type="int" >        2        6        9       10       22 </v>
   <v type="int" >        2        6        7        9       22 </v>
   <v type="int" >        2        6        7       18       22 </v>
   <v type="int" >        2        6       10       21       22 </v>
   <v type="int" >        2        6       17       21       22 </v>
   <v type="int" >        2        6       17       18       22 </v>
   <v type="int" >        2        7        8        9       19 </v>
   <v type="int" >        2        4        7        8       19 </v>
   <v type="int" >        2        4        7       15       19 </v>
   <v type="int" >        2        7        9       19       22 </v>
   <v type="int" >        2        7       18       19       22 </v>
   <v type="int" >        2        7       15       18       19 </v>
   <v type="int" >        2        4        7        8       24 </v>
   <v type="int" >        2        7        8        9       24 </v>
   <v type="int" >        2        8        9       20       24 </v>
   <v type="int" >        2        4        8       23       24 </v>
   <v type="int" >        2        8       19       23       24 </v>
   <v type="int" >        2        8       19       20       24 </v>
   <v type="int" >        2        6        7        9       25 </v>
   <v type="int" >        2        6        9       10       25 </v>
   <v type="int" >        2        9       10       21       25 </v>
   <v type="int" >        2        7        9       24       25 </v>
   <v type="int" >        2        9       20       24       25 </v>
   <v type="int" >        2        9       20       21       25 </v>
   <v type="int" >        2        5        6       10       26 </v>
   <v type="int" >        2        5        9       10       26 </v>
   <v type="int" >        2        9       10       22       26 </v>
   <v type="int" >        2        6       10       25       26 </v>
   <v type="int" >        2       10       21       25       26 </v>
   <v type="int" >        2       10       21       22       26 </v>
   <v type="int" >        2        4        5        9       23 </v>
   <v type="int" >        2        4        8        9       23 </v>
   <v type="int" >        2        8        9       19       23 </v>
   <v type="int" >        2        5        9       23       26 </v>
   <v type="int" >        2        9       22       23       26 </v>
   <v type="int" >        2        9       19       22       23 </v>
   <v type="int" >        2        1        2        4       12 </v>
   <v type="int" >        2        2        4        7       12 </v>
   <v type="int" >        2        4        7       12       24 </v>
   <v type="int" >        2        1        4       11       12 </v>
   <v type="int" >        2        4       11       12       23 </v>
   <v type="int" >        2        4       12       23       24 </v>
   <v type="int" >        2        2        3        7       13 </v>
   <v type="int" >        2        3        6        7       13 </v>
   <v type="int" >        2        6        7       13       25 </v>
   <v type="int" >        2        2        7       12       13 </v>
   <v type="int" >        2        7       12       13       24 </v>
   <v type="int" >        2        7       13       24       25 </v>
   <v type="int" >        2        2        3        6       14 </v>
   <v type="int" >        2        2        5        6       14 </v>
   <v type="int" >        2        5        6       14       26 </v>
   <v type="int" >        2        3        6       13       14 </v>
   <v type="int" >        2        6       13       14       25 </v>
   <v type="int" >        2        6       14       25       26 </v>
   <v type="int" >        2        1        2        5       11 </v>
   <v type="int" >        2        1        4        5       11 </v>
   <v type="int" >        2        4        5       11       23 </v>
   <v type="int" >        2        2        5       11       14 </v>
   <v type="int" >        2        5       11       14       26 </v>
   <v type="int" >        2        5       11       23       26 </v>
   <v type="int" >        2       11       15       16       31 </v>
   <v type="int" >        2       11       12       16       31 </v>
   <v type="int" >        2       11       12       28       31 </v>
   <v type="int" >        2       11       15       30       31 </v>
   <v type="int" >        2       11       27       30       31 </v>
   <v type="int" >        2       11       27       28       31 </v>
   <v type="int" >        2       12       16       17       32 </v>
   <v type="int" >        2       12       13       17       32 </v>
   <v type="int" >        2       12       13       29       32 </v>
   <v type="int" >        2       12       16       31       32 </v>
   <v type="int" >        2       12       28       31       32 </v>
   <v type="int" >        2       12       28       29       32 </v>
   <v type="int" >        2       13       17       18       33 </v>
   <v type="int" >        2       13       14       18       33 </v>
   <v type="int" >        2       13       14       28       33 </v>
   <v type="int" >        2       13       17       32       33 </v>
   <v type="int" >        2       13       29       32       33 </v>
   <v type="int" >        2       13       28       29       33 </v>
   <v type="int" >        2       14       15       18       30 </v>
   <v type="int" >        2       11       14       15       30 </v>
   <v type="int" >        2       11       14       27       30 </v>
   <v type="int" >        2       14       18       30       33 </v>
   <v type="int" >        2       14       28       30       33 </v>
   <v type="int" >        2       14       27       28       30 </v>
   <v type="int" >        2       15       19       20       35 </v>
   <v type="int" >        2       15       16       20       35 </v>
   <v type="int" >        2       15       16       31       35 </v>
   <v type="int" >        2       15       19       34       35 </v>
   <v type="int" >        2       15       30       34       35 </v>
   <v type="int" >        2       15       30       31       35 </v>
   <v type="int" >        2       16       20       21       36 </v>
   <v type="int" >        2       16       17       21       36 </v>
   <v type="int" >        2       16       17       32       36 </v>
   <v type="int" >        2       16       20       35       36 </v>
   <v type="int" >        2       16       31       35       36 </v>
   <v type="int" >        2       16       31       32       36 </v>
   <v type="int" >        2       17       21       22       35 </v>
   <v type="int" >        2       17       18       22       35 </v>
   <v type="int" >        2       17       18       33       35 </v>
   <v type="int" >        2       17       21       35       36 </v>
   <v type="int" >        2       17       32       35       36 </v>
   <v type="int" >        2       17       32       33       35 </v>
   <v type="int" >        2       18       19       22       34 </v>
   <v type="int" >        2       15       18       19       34 </v>
   <v type="int" >        2       15       18       30       34 </v>
   <v type="int" >        2       18       22       34       35 </v>
   <v type="int" >        2       18       33       34       35 </v>
   <v type="int" >        2       18       30       33       34 </v>
   <v type="int" >        2       19       23       24       33 </v>
   <v type="int" >        2       19       20       24       33 </v>
   <v type="int" >        2       19       20       33       35 </v>
   <v type="int" >        2       19       23       30       33 </v>
   <v type="int" >        2       19       30       33       34 </v>
   <v type="int" >        2       19       33       34       35 </v>
   <v type="int" >        2       20       24       25       32 </v>
   <v type="int" >        2       20       21       25       32 </v>
   <v type="int" >        2       20       21       32       36 </v>
   <v type="int" >        2       20       24       32       33 </v>
   <v type="int" >        2       20       32       33       35 </v>
   <v type="int" >        2       20       32       35       36 </v>
   <v type="int" >        2       21       25       26       31 </v>
   <v type="int" >        2       21       22       26       31 </v>
   <v type="int" >        2       21       22       31       35 </v>
   <v type="int" >        2       21       25       31       32 </v>
   <v type="int" >        2       21       31       32       36 </v>
   <v type="int" >        2       21       31       35       36 </v>
   <v type="int" >        2       22       23       26       30 </v>
   <v type="int" >        2       19       22       23       30 </v>
   <v type="int" >        2       19       22       30       34 </v>
   <v type="int" >        2       22       26       30       31 </v>
   <v type="int" >        2       22       30       31       35 </v>
   <v type="int" >        2       22       30       34       35 </v>
   <v type="int" >        2       11       12       23       28 </v>
   <v type="int" >        2       12       23       24       28 </v>
   <v type="int" >        2       23       24       28       33 </v>
   <v type="int" >        2       11       23       27       28 </v>
   <v type="int" >        2       23       27       28       30 </v>
   <v type="int" >        2       23       28       30       33 </v>
   <v type="int" >        2       12       13       24       29 </v>
   <v type="int" >        2       13       24       25       29 </v>
   <v type="int" >        2       24       25       29       32 </v>
   <v type="int" >        2       12       24       28       29 </v>
   <v type="int" >        2       24       28       29       33 </v>
   <v type="int" >        2       24       29       32       33 </v>
   <v type="int" >        2       13       14       25       28 </v>
   <v type="int" >        2       14       25       26       28 </v>
   <v type="int" >        2       25       26       28       31 </v>
   <v type="int" >        2       13       25       28       29 </v>
   <v type="int" >        2       25       28       29       32 </v>
   <v type="int" >        2       25       28       31       32 </v>
   <v type="int" >        2       11       14       26       27 </v>
   <v type="int" >        2       11       23       26       27 </v>
   <v type="int" >        2       23       26       27       30 </v>
   <v type="int" >        2       14       26       27       28 </v>
   <v type="int" >        2       26       27       28       31 </v>
   <v type="int" >        2       26       27       30       31 </v>
  </varray>
  <i name="volumeweight">      0.00260417 </i>
 </kpoints>
 <parameters>
  <separator name="general" >
   <i type="string" name="SYSTEM">Li(NbTa)O_3</i>
   <i type="logical" name="LCOMPAT"> F  </i>
  </separator>
  <separator name="electronic" >
   <i type="string" name="PREC">accura</i>
   <i name="ENMAX">    475.00000000</i>
   <i name="ENAUG">    605.39200000</i>
   <i name="EDIFF">      0.00000100</i>
   <i type="int" name="IALGO">    68</i>
   <i type="int" name="IWAVPR">    11</i>
   <i type="int" name="NBANDS">   288</i>
   <i name="NELECT">    464.00000000</i>
   <i type="int" name="TURBO">     0</i>
   <i type="int" name="IRESTART">     0</i>
   <i type="int" name="NREBOOT">     0</i>
   <i type="int" name="NMIN">     0</i>
   <i name="EREF">      0.00000000</i>
   <separator name="electronic smearing" >
    <i type="int" name="ISMEAR">    -5</i>
    <i name="SIGMA">      0.05000000</i>
    <i name="KSPACING">      0.50000000</i>
    <i type="logical" name="KGAMMA"> T  </i>
   </separator>
   <separator name="electronic projectors" >
    <i type="logical" name="LREAL"> T  </i>
    <v name="ROPT">     -0.00025000     -0.00025000     -0.00025000     -0.00025000</v>
    <i type="int" name="LMAXPAW">  -100</i>
    <i type="int" name="LMAXMIX">     2</i>
    <i type="logical" name="NLSPLINE"> F  </i>
   </separator>
   <separator name="electronic startup" >
    <i type="int" name="ISTART">     0</i>
    <i type="int" name="ICHARG">     2</i>
    <i type="int" name="INIWAV">     1</i>
   </separator>
   <separator name="electronic spin" >
    <i type="int" name="ISPIN">     1</i>
    <i type="logical" name="LNONCOLLINEAR"> F  </i>
    <v name="MAGMOM">      1.00000000      1.00000000      1.00000000      1.00000000      1.00000000      1.00000000      1.00000000      1.00000000      1.00000000      1.00000000      1.00000000      1.00000000      1.00000000      1.00000000      1.00000000      1.00000000      1.00000000      1.00000000      1.00000000      1.00000000
      1.00000000      1.00000000      1.00000000      1.00000000      1.00000000      1.00000000      1.00000000      1.00000000      1.00000000      1.00000000      1.00000000      1.00000000      1.00000000      1.00000000      1.00000000      1.00000000      1.00000000      1.00000000      1.00000000      1.00000000
      1.00000000      1.00000000      1.00000000      1.00000000      1.00000000      1.00000000      1.00000000      1.00000000      1.00000000      1.00000000      1.00000000      1.00000000      1.00000000      1.00000000      1.00000000      1.00000000      1.00000000      1.00000000      1.00000000      1.00000000
      1.00000000      1.00000000      1.00000000      1.00000000      1.00000000      1.00000000      1.00000000      1.00000000      1.00000000      1.00000000      1.00000000      1.00000000      1.00000000      1.00000000      1.00000000      1.00000000      1.00000000      1.00000000      1.00000000      1.00000000
</v>
    <i name="NUPDOWN">     -1.00000000</i>
    <i type="logical" name="LSORBIT"> F  </i>
    <v name="SAXIS">      0.00000000      0.00000000      1.00000000</v>
    <i type="logical" name="LSPIRAL"> F  </i>
    <v name="QSPIRAL">      0.00000000      0.00000000      0.00000000</v>
    <i type="logical" name="LZEROZ"> F  </i>
   </separator>
   <separator name="electronic exchange-correlation" >
    <i type="logical" name="LASPH"> F  </i>
    <i type="logical" name="LMETAGGA"> F  </i>
   </separator>
   <separator name="electronic convergence" >
    <i type="int" name="NELM">  1000</i>
    <i type="int" name="NELMDL">    -5</i>
    <i type="int" name="NELMIN">     4</i>
    <i name="ENINI">    475.00000000</i>
    <separator name="electronic convergence detail" >
     <i type="logical" name="LDIAG"> T  </i>
     <i type="logical" name="LSUBROT"> F  </i>
     <i name="WEIMIN">      0.00100000</i>
     <i name="EBREAK">      0.00000000</i>
     <i name="DEPER">      0.30000000</i>
     <i type="int" name="NRMM">     4</i>
     <i name="TIME">      0.40000000</i>
    </separator>
   </separator>
   <separator name="electronic mixer" >
    <i name="AMIX">      0.40000000</i>
    <i name="BMIX">      1.00000000</i>
    <i name="AMIN">      0.10000000</i>
    <i name="AMIX_MAG">      1.60000000</i>
    <i name="BMIX_MAG">      1.00000000</i>
    <separator name="electronic mixer details" >
     <i type="int" name="IMIX">     4</i>
     <i type="logical" name="MIXFIRST"> F  </i>
     <i type="int" name="MAXMIX">   -45</i>
     <i name="WC">    100.00000000</i>
     <i type="int" name="INIMIX">     1</i>
     <i type="int" name="MIXPRE">     1</i>
     <i type="int" name="MREMOVE">     5</i>
    </separator>
   </separator>
   <separator name="electronic dipolcorrection" >
    <i type="logical" name="LDIPOL"> F  </i>
    <i type="logical" name="LMONO"> F  </i>
    <i type="int" name="IDIPOL">     0</i>
    <i name="EPSILON">      1.00000000</i>
    <v name="DIPOL">   -100.00000000   -100.00000000   -100.00000000</v>
    <i name="EFIELD">      0.00000000</i>
   </separator>
  </separator>
  <separator name="grids" >
   <i type="int" name="NGX">    80</i>
   <i type="int" name="NGY">    80</i>
   <i type="int" name="NGZ">    80</i>
   <i type="int" name="NGXF">   160</i>
   <i type="int" name="NGYF">   160</i>
   <i type="int" name="NGZF">   160</i>
   <i type="logical" name="ADDGRID"> F  </i>
  </separator>
  <separator name="ionic" >
   <i type="int" name="NSW">   200</i>
   <i type="int" name="IBRION">     1</i>
   <i type="int" name="MDALGO">     0</i>
   <i type="int" name="ISIF">     4</i>
   <i name="PSTRESS">      0.00000000</i>
   <i name="EDIFFG">     -0.00500000</i>
   <i type="int" name="NFREE">     0</i>
   <i name="POTIM">      0.15000000</i>
   <i name="SMASS">     -3.00000000</i>
   <i name="SCALEE">      1.00000000</i>
  </separator>
  <separator name="ionic md" >
   <i name="TEBEG">      0.00010000</i>
   <i name="TEEND">      0.00010000</i>
   <i type="int" name="NBLOCK">     1</i>
   <i type="int" name="KBLOCK">   200</i>
   <i type="int" name="NPACO">   256</i>
   <i name="APACO">     16.00000000</i>
  </separator>
  <separator name="symmetry" >
   <i type="int" name="ISYM">     2</i>
   <i name="SYMPREC">      0.00001000</i>
  </separator>
  <separator name="dos" >
   <i type="int" name="LORBIT">     0</i>
   <v name="RWIGS">     -1.00000000     -1.00000000     -1.00000000     -1.00000000</v>
   <i type="int" name="NEDOS">   301</i>
   <i name="EMIN">     10.00000000</i>
   <i name="EMAX">    -10.00000000</i>
   <i name="EFERMI">      0.00000000</i>
  </separator>
  <separator name="writing" >
   <i type="int" name="NWRITE">     0</i>
   <i type="logical" name="LWAVE"> F  </i>
   <i type="logical" name="LDOWNSAMPLE"> F  </i>
   <i type="logical" name="LCHARG"> F  </i>
   <i type="logical" name="LPARD"> F  </i>
   <i type="logical" name="LVTOT"> F  </i>
   <i type="logical" name="LVHAR"> F  </i>
   <i type="logical" name="LELF"> F  </i>
   <i type="logical" name="LOPTICS"> F  </i>
   <v name="STM">      0.00000000      0.00000000      0.00000000      0.00000000      0.00000000      0.00000000      0.00000000</v>
  </separator>
  <separator name="performance" >
   <i type="int" name="NPAR">    72</i>
   <i type="int" name="NSIM">     4</i>
   <i type="int" name="NBLK">    -1</i>
   <i type="logical" name="LPLANE"> T  </i>
   <i type="logical" name="LSCALAPACK"> F  </i>
   <i type="logical" name="LSCAAWARE"> F  </i>
   <i type="logical" name="LSCALU"> F  </i>
   <i type="logical" name="LASYNC"> F  </i>
   <i type="logical" name="LORBITALREAL"> F  </i>
  </separator>
  <separator name="miscellaneous" >
   <i type="int" name="IDIOT">     3</i>
   <i type="int" name="ISPECIAL">     0</i>
   <i type="logical" name="LMUSIC"> F  </i>
   <v name="POMASS">      7.01000000     92.91000000     16.00000000    180.94800000</v>
   <v name="DARWINR">      0.00000000      0.00000000      0.00000000      0.00000000</v>
   <v name="DARWINV">      1.00000000      1.00000000      1.00000000      1.00000000</v>
   <i type="logical" name="LCORR"> T  </i>
  </separator>
  <i type="logical" name="GGA_COMPAT"> T  </i>
  <i type="logical" name="LBERRY"> F  </i>
  <i type="int" name="ICORELEVEL">     0</i>
  <i type="logical" name="LDAU"> F  </i>
  <i type="int" name="I_CONSTRAINED_M">     0</i>
  <separator name="electronic exchange-correlation" >
   <i type="string" name="GGA">PS</i>
   <i type="int" name="VOSKOWN">     0</i>
   <i type="logical" name="LHFCALC"> F  </i>
   <i type="string" name="PRECFOCK"></i>
   <i type="logical" name="LSYMGRAD"> F  </i>
   <i type="logical" name="LHFONE"> F  </i>
   <i type="logical" name="LRHFCALC"> F  </i>
   <i type="logical" name="LTHOMAS"> F  </i>
   <i type="logical" name="LMODELHF"> F  </i>
   <i name="ENCUT4O">     -1.00000000</i>
   <i type="int" name="EXXOEP">     0</i>
   <i type="int" name="FOURORBIT">     0</i>
   <i name="AEXX">      0.00000000</i>
   <i name="HFALPHA">      0.00000000</i>
   <i name="MCALPHA">      0.00000000</i>
   <i name="ALDAX">      1.00000000</i>
   <i name="AGGAX">      1.00000000</i>
   <i name="ALDAC">      1.00000000</i>
   <i name="AGGAC">      1.00000000</i>
   <i type="int" name="NKREDX">     1</i>
   <i type="int" name="NKREDY">     1</i>
   <i type="int" name="NKREDZ">     1</i>
   <i type="logical" name="SHIFTRED"> F  </i>
   <i type="logical" name="ODDONLY"> F  </i>
   <i type="logical" name="EVENONLY"> F  </i>
   <i type="int" name="LMAXFOCK">     0</i>
   <i type="int" name="NMAXFOCKAE">     0</i>
   <i type="logical" name="LFOCKAEDFT"> F  </i>
   <i name="HFSCREEN">      0.00000000</i>
   <i name="HFSCREENC">      0.00000000</i>
   <i type="int" name="NBANDSGWLOW">     0</i>
  </separator>
  <separator name="vdW DFT" >
   <i type="logical" name="LUSE_VDW"> F  </i>
   <i name="Zab_VDW">     -0.84910000</i>
   <i name="PARAM1">      0.12340000</i>
   <i name="PARAM2">      1.00000000</i>
   <i name="PARAM3">      0.00000000</i>
  </separator>
  <separator name="model GW" >
   <i type="int" name="MODEL_GW">     0</i>
   <i name="MODEL_EPS0">      6.35214830</i>
   <i name="MODEL_ALPHA">      1.00000000</i>
  </separator>
  <separator name="linear response parameters" >
   <i type="logical" name="LEPSILON"> F  </i>
   <i type="logical" name="LRPA"> F  </i>
   <i type="logical" name="LNABLA"> F  </i>
   <i type="logical" name="LVEL"> F  </i>
   <i type="int" name="KINTER">     0</i>
   <i name="CSHIFT">      0.10000000</i>
   <i name="OMEGAMAX">     -1.00000000</i>
   <i name="DEG_THRESHOLD">      0.00200000</i>
   <i name="RTIME">     -0.10000000</i>
   <i name="WPLASMAI">      0.00000000</i>
   <v name="DFIELD">      0.00000000      0.00000000      0.00000000</v>
   <v name="WPLASMA">      0.00000000      0.00000000      0.00000000      0.00000000      0.00000000      0.00000000      0.00000000      0.00000000      0.00000000</v>
  </separator>
  <separator name="orbital magnetization" >
   <i type="logical" name="NUCIND"> F  </i>
   <v name="MAGPOS">      0.00000000      0.00000000      0.00000000</v>
   <i type="logical" name="LNICSALL"> T  </i>
   <i type="logical" name="ORBITALMAG"> F  </i>
   <i type="logical" name="LMAGBLOCH"> F  </i>
   <i type="logical" name="LCHIMAG"> F  </i>
   <i type="logical" name="LGAUGE"> T  </i>
   <i type="int" name="MAGATOM">     0</i>
   <v name="MAGDIPOL">      0.00000000      0.00000000      0.00000000</v>
   <v name="AVECCONST">      0.00000000      0.00000000      0.00000000</v>
  </separator>
  <separator name="response functions" >
   <i type="logical" name="LADDER"> F  </i>
   <i type="logical" name="LRPAFORCE"> F  </i>
   <i type="logical" name="LFXC"> F  </i>
   <i type="logical" name="LHARTREE"> T  </i>
   <i type="int" name="IBSE">     0</i>
   <v type="int" name="KPOINT">    -1     0     0     0</v>
   <i type="logical" name="LTCTE"> F  </i>
   <i type="logical" name="LTETE"> F  </i>
   <i type="logical" name="LTRIPLET"> F  </i>
   <i type="logical" name="LFXCEPS"> F  </i>
   <i type="logical" name="LFXHEG"> F  </i>
   <i type="int" name="NATURALO">     2</i>
   <i type="logical" name="L2ORDER"> F  </i>
   <i type="logical" name="LMP2LT"> F  </i>
   <i type="logical" name="LUSEW"> F  </i>
   <i name="ENCUTGW">     -2.00000000</i>
   <i name="ENCUTGWSOFT">     -2.00000000</i>
   <i name="ENCUTLF">     -1.00000000</i>
   <i type="int" name="LMAXMP2">    -1</i>
   <i name="SCISSOR">      0.00000000</i>
   <i type="int" name="NOMEGA">     0</i>
   <i type="int" name="NOMEGAR">     0</i>
   <i type="int" name="NBANDSGW">    -1</i>
   <i type="int" name="NBANDSO">    -1</i>
   <i type="int" name="NBANDSV">    -1</i>
   <i type="int" name="NELM">  1000</i>
   <i type="int" name="NELMHF">     1</i>
   <i type="int" name="DIM">     3</i>
   <i type="int" name="ANTIRES">     0</i>
   <i name="OMEGAMAX">    -30.00000000</i>
   <i name="OMEGAMIN">    -30.00000000</i>
   <i name="OMEGATL">   -200.00000000</i>
   <i type="int" name="OMEGAGRID">   140</i>
   <i name="CSHIFT">     -0.10000000</i>
   <i type="logical" name="SELFENERGY"> F  </i>
   <i type="logical" name="LSPECTRAL"> F  </i>
   <i type="logical" name="LSPECTRALGW"> F  </i>
   <i type="logical" name="LSINGLES"> F  </i>
   <i type="logical" name="LFERMIGW"> F  </i>
   <i type="logical" name="ODDONLYGW"> F  </i>
   <i type="logical" name="EVENONLYGW"> F  </i>
   <i type="int" name="NKREDLFX">     1</i>
   <i type="int" name="NKREDLFY">     1</i>
   <i type="int" name="NKREDLFZ">     1</i>
   <i type="int" name="MAXMEM">  2800</i>
   <i type="int" name="TELESCOPE">     0</i>
   <i type="int" name="TAUPAR">     1</i>
   <i type="int" name="OMEGAPAR">    -1</i>
   <i name="LAMBDA">      1.00000000</i>
  </separator>
  <separator name="External order field" >
   <i name="OFIELD_KAPPA">      0.00000000</i>
   <v name="OFIELD_K">      0.00000000      0.00000000      0.00000000</v>
   <i name="OFIELD_Q6_NEAR">      0.00000000</i>
   <i name="OFIELD_Q6_FAR">      0.00000000</i>
   <i name="OFIELD_A">      0.00000000</i>
  </separator>
 </parameters>
 <atominfo>
  <atoms>      80 </atoms>
  <types>       4 </types>
  <array name="atoms" >
   <dimension dim="1">ion</dimension>
   <field type="string">element</field>
   <field type="int">atomtype</field>
   <set>
    <rc><c>Li</c><c>   1</c></rc>
    <rc><c>Li</c><c>   1</c></rc>
    <rc><c>Li</c><c>   1</c></rc>
    <rc><c>Li</c><c>   1</c></rc>
    <rc><c>Li</c><c>   1</c></rc>
    <rc><c>Li</c><c>   1</c></rc>
    <rc><c>Li</c><c>   1</c></rc>
    <rc><c>Li</c><c>   1</c></rc>
    <rc><c>Li</c><c>   1</c></rc>
    <rc><c>Li</c><c>   1</c></rc>
    <rc><c>Li</c><c>   1</c></rc>
    <rc><c>Li</c><c>   1</c></rc>
    <rc><c>Li</c><c>   1</c></rc>
    <rc><c>Li</c><c>   1</c></rc>
    <rc><c>Li</c><c>   1</c></rc>
    <rc><c>Li</c><c>   1</c></rc>
    <rc><c>Nb</c><c>   2</c></rc>
    <rc><c>Nb</c><c>   2</c></rc>
    <rc><c>Nb</c><c>   2</c></rc>
    <rc><c>Nb</c><c>   2</c></rc>
    <rc><c>Nb</c><c>   2</c></rc>
    <rc><c>Nb</c><c>   2</c></rc>
    <rc><c>Nb</c><c>   2</c></rc>
    <rc><c>Nb</c><c>   2</c></rc>
    <rc><c>Nb</c><c>   2</c></rc>
    <rc><c>Nb</c><c>   2</c></rc>
    <rc><c>O </c><c>   3</c></rc>
    <rc><c>O </c><c>   3</c></rc>
    <rc><c>O </c><c>   3</c></rc>
    <rc><c>O </c><c>   3</c></rc>
    <rc><c>O </c><c>   3</c></rc>
    <rc><c>O </c><c>   3</c></rc>
    <rc><c>O </c><c>   3</c></rc>
    <rc><c>O </c><c>   3</c></rc>
    <rc><c>O </c><c>   3</c></rc>
    <rc><c>O </c><c>   3</c></rc>
    <rc><c>O </c><c>   3</c></rc>
    <rc><c>O </c><c>   3</c></rc>
    <rc><c>O </c><c>   3</c></rc>
    <rc><c>O </c><c>   3</c></rc>
    <rc><c>O </c><c>   3</c></rc>
    <rc><c>O </c><c>   3</c></rc>
    <rc><c>O </c><c>   3</c></rc>
    <rc><c>O </c><c>   3</c></rc>
    <rc><c>O </c><c>   3</c></rc>
    <rc><c>O </c><c>   3</c></rc>
    <rc><c>O </c><c>   3</c></rc>
    <rc><c>O </c><c>   3</c></rc>
    <rc><c>O </c><c>   3</c></rc>
    <rc><c>O </c><c>   3</c></rc>
    <rc><c>O </c><c>   3</c></rc>
    <rc><c>O </c><c>   3</c></rc>
    <rc><c>O </c><c>   3</c></rc>
    <rc><c>O </c><c>   3</c></rc>
    <rc><c>O </c><c>   3</c></rc>
    <rc><c>O </c><c>   3</c></rc>
    <rc><c>O </c><c>   3</c></rc>
    <rc><c>O </c><c>   3</c></rc>
    <rc><c>O </c><c>   3</c></rc>
    <rc><c>O </c><c>   3</c></rc>
    <rc><c>O </c><c>   3</c></rc>
    <rc><c>O </c><c>   3</c></rc>
    <rc><c>O </c><c>   3</c></rc>
    <rc><c>O </c><c>   3</c></rc>
    <rc><c>O </c><c>   3</c></rc>
    <rc><c>O </c><c>   3</c></rc>
    <rc><c>O </c><c>   3</c></rc>
    <rc><c>O </c><c>   3</c></rc>
    <rc><c>O </c><c>   3</c></rc>
    <rc><c>O </c><c>   3</c></rc>
    <rc><c>O </c><c>   3</c></rc>
    <rc><c>O </c><c>   3</c></rc>
    <rc><c>O </c><c>   3</c></rc>
    <rc><c>O </c><c>   3</c></rc>
    <rc><c>Ta</c><c>   4</c></rc>
    <rc><c>Ta</c><c>   4</c></rc>
    <rc><c>Ta</c><c>   4</c></rc>
    <rc><c>Ta</c><c>   4</c></rc>
    <rc><c>Ta</c><c>   4</c></rc>
    <rc><c>Ta</c><c>   4</c></rc>
   </set>
  </array>
  <array name="atomtypes" >
   <dimension dim="1">type</dimension>
   <field type="int">atomspertype</field>
   <field type="string">element</field>
   <field>mass</field>
   <field>valence</field>
   <field type="string">pseudopotential</field>
   <set>
    <rc><c>  16</c><c>Li</c><c>      7.01000000</c><c>      1.00000000</c><c>  PAW_PBE Li 17Jan2003                  </c></rc>
    <rc><c>  10</c><c>Nb</c><c>     92.91000000</c><c>     13.00000000</c><c>  PAW_PBE Nb_sv 25May2007               </c></rc>
    <rc><c>  48</c><c>O </c><c>     16.00000000</c><c>      6.00000000</c><c>  PAW_PBE O 08Apr2002                   </c></rc>
    <rc><c>   6</c><c>Ta</c><c>    180.94800000</c><c>      5.00000000</c><c>  PAW_PBE Ta 17Jan2003                  </c></rc>
   </set>
  </array>
 </atominfo>
 <structure name="initialpos" >
  <crystal>
   <varray name="basis" >
    <v>       5.15062953      -2.97212168       9.22197858 </v>
    <v>       0.00247294       5.94583037       9.22111589 </v>
    <v>      -5.14802253      -2.97347203       9.22009452 </v>
   </varray>
   <i name="volume">    846.95310641 </i>
   <varray name="rec_basis" >
    <v>       0.09710083      -0.05607549       0.03613177 </v>
    <v>      -0.00002131       0.11212456       0.03614817 </v>
    <v>      -0.09709935      -0.05605003       0.03616743 </v>
   </varray>
  </crystal>
  <varray name="positions" >
   <v>       0.13834752       0.13936271       0.13984335 </v>
   <v>       0.39146324       0.38999630       0.39085144 </v>
   <v>       0.14028321       0.14032414       0.64092124 </v>
   <v>       0.39173469       0.39088444       0.89059988 </v>
   <v>       0.14005761       0.63914415       0.13990376 </v>
   <v>       0.38998511       0.89022976       0.39046082 </v>
   <v>       0.14027342       0.63856692       0.63942290 </v>
   <v>       0.39066873       0.89122478       0.89017412 </v>
   <v>       0.63968950       0.14081636       0.13851063 </v>
   <v>       0.89081879       0.39199278       0.39127564 </v>
   <v>       0.64044608       0.13979598       0.63895884 </v>
   <v>       0.89104424       0.39188824       0.88993991 </v>
   <v>       0.63987068       0.64050964       0.14005521 </v>
   <v>       0.88952244       0.89019616       0.39154151 </v>
   <v>       0.64095434       0.64008558       0.64144699 </v>
   <v>       0.89103108       0.89076076       0.89134632 </v>
   <v>       0.99959237       0.00150112       0.99675172 </v>
   <v>       0.99938324       0.00003493       0.49763958 </v>
   <v>       0.25168038       0.24891337       0.74959517 </v>
   <v>       0.99749990       0.49794372       0.00086033 </v>
   <v>       0.00052440       0.49715140       0.50088067 </v>
   <v>       0.49988249       0.99738472       0.00090131 </v>
   <v>       0.49954620       0.50003968       0.99785757 </v>
   <v>       0.75097315       0.74942469       0.24984287 </v>
   <v>       0.49985523       0.50129758       0.49655071 </v>
   <v>       0.74940214       0.75095878       0.74802348 </v>
   <v>       0.05623360       0.18120304       0.36059596 </v>
   <v>       0.36055215       0.05618073       0.18135900 </v>
   <v>       0.18067803       0.36043515       0.05635112 </v>
   <v>       0.43164615       0.30579781       0.11007695 </v>
   <v>       0.10933811       0.43208088       0.30572184 </v>
   <v>       0.30616879       0.11038237       0.43144631 </v>
   <v>       0.05540035       0.18155956       0.86034038 </v>
   <v>       0.35943918       0.05639020       0.68203455 </v>
   <v>       0.18159346       0.36067916       0.55556672 </v>
   <v>       0.43176800       0.30520898       0.61104129 </v>
   <v>       0.11066152       0.43074915       0.80539644 </v>
   <v>       0.30515946       0.11079423       0.93190663 </v>
   <v>       0.05604537       0.68076856       0.36081137 </v>
   <v>       0.36061507       0.55618152       0.18081868 </v>
   <v>       0.18040413       0.86090372       0.05629587 </v>
   <v>       0.43096027       0.80670950       0.10983535 </v>
   <v>       0.11018018       0.93120277       0.30647725 </v>
   <v>       0.30631393       0.60963452       0.43142758 </v>
   <v>       0.05642617       0.67983109       0.86072292 </v>
   <v>       0.36082901       0.55621291       0.68039936 </v>
   <v>       0.18050111       0.86073339       0.55625759 </v>
   <v>       0.43105925       0.80638098       0.60992686 </v>
   <v>       0.10974163       0.93076687       0.80662904 </v>
   <v>       0.30592914       0.60973059       0.93157562 </v>
   <v>       0.55668960       0.18089021       0.36049958 </v>
   <v>       0.86099568       0.05588109       0.18065345 </v>
   <v>       0.68094161       0.36072792       0.05606070 </v>
   <v>       0.93094987       0.30643726       0.10970186 </v>
   <v>       0.61015919       0.43137998       0.30635721 </v>
   <v>       0.80662739       0.10979363       0.43135599 </v>
   <v>       0.55625493       0.18016866       0.86082204 </v>
   <v>       0.86060460       0.05601788       0.68054061 </v>
   <v>       0.68056339       0.36084158       0.55626059 </v>
   <v>       0.93128773       0.30623948       0.60979445 </v>
   <v>       0.61008613       0.43101265       0.80636497 </v>
   <v>       0.80623116       0.10929440       0.93147945 </v>
   <v>       0.55554077       0.68183433       0.36007734 </v>
   <v>       0.86007458       0.55634829       0.18046819 </v>
   <v>       0.68107200       0.86046774       0.05575260 </v>
   <v>       0.93136114       0.80492582       0.11095065 </v>
   <v>       0.61067752       0.93165297       0.30547765 </v>
   <v>       0.80503784       0.61074302       0.43111591 </v>
   <v>       0.55556968       0.68082022       0.86090541 </v>
   <v>       0.86059508       0.55581627       0.68050717 </v>
   <v>       0.68097931       0.85972506       0.55655493 </v>
   <v>       0.93138973       0.80539064       0.61084254 </v>
   <v>       0.61024363       0.93134011       0.80571432 </v>
   <v>       0.80584636       0.61083297       0.93009391 </v>
   <v>       0.24862253       0.24992729       0.24762435 </v>
   <v>       0.24806756       0.74806531       0.24849505 </v>
   <v>       0.24752603       0.74745881       0.74934160 </v>
   <v>       0.74730972       0.24776208       0.24918815 </v>
   <v>       0.49682629       0.99767190       0.50015434 </v>
   <v>       0.74834988       0.24827406       0.74832874 </v>
  </varray>
 </structure>
 <calculation>
  <scstep>
   <time name="dav">   26.26   26.26</time>
   <time name="total">   26.42   26.42</time>
   <energy>
    <i name="alphaZ">   1624.69313165 </i>
    <i name="ewald"> -26710.37146774 </i>
    <i name="hartreedc"> -10679.76865480 </i>
    <i name="XCdc">   1465.57870813 </i>
    <i name="pawpsdc">  30201.20122080 </i>
    <i name="pawaedc"> -29545.67637776 </i>
    <i name="eentropy">      0.00000000 </i>
    <i name="bandstr">    188.90007446 </i>
    <i name="atom">  37080.84622879 </i>
    <i name="e_fr_energy">   3625.40286354 </i>
    <i name="e_wo_entrp">   3625.40286354 </i>
    <i name="e_0_energy">   3625.40286354 </i>
   </energy>
  </scstep>
  <scstep>
   <time name="dav">   39.00   39.01</time>
   <time name="total">   39.01   39.02</time>
   <energy>
    <i name="e_fr_energy">   -557.94218633 </i>
    <i name="e_wo_entrp">   -557.94218633 </i>
    <i name="e_0_energy">   -557.94218633 </i>
   </energy>
  </scstep>
  <scstep>
   <time name="dav">   38.88   38.90</time>
   <time name="total">   38.89   38.91</time>
   <energy>
    <i name="e_fr_energy">   -800.33925361 </i>
    <i name="e_wo_entrp">   -800.33925361 </i>
    <i name="e_0_energy">   -800.33925361 </i>
   </energy>
  </scstep>
  <scstep>
   <time name="dav">   45.39   45.39</time>
   <time name="total">   45.40   45.40</time>
   <energy>
    <i name="e_fr_energy">   -811.23049326 </i>
    <i name="e_wo_entrp">   -811.23049326 </i>
    <i name="e_0_energy">   -811.23049326 </i>
   </energy>
  </scstep>
  <scstep>
   <time name="dav">   39.37   39.38</time>
   <time name="total">   40.37   40.38</time>
   <energy>
    <i name="e_fr_energy">   -811.44427525 </i>
    <i name="e_wo_entrp">   -811.44427525 </i>
    <i name="e_0_energy">   -811.44427525 </i>
   </energy>
  </scstep>
  <scstep>
   <time name="diag">    3.95    3.95</time>
   <time name="diis">   13.93   13.93</time>
   <time name="orth">    0.56    0.56</time>
   <time name="total">   19.49   19.50</time>
   <energy>
    <i name="e_fr_energy">   -690.00953197 </i>
    <i name="e_wo_entrp">   -690.00953197 </i>
    <i name="e_0_energy">   -690.00953197 </i>
   </energy>
  </scstep>
  <scstep>
   <time name="diag">    3.95    3.95</time>
   <time name="diis">   16.03   16.03</time>
   <time name="orth">    0.56    0.56</time>
   <time name="total">   21.58   21.60</time>
   <energy>
    <i name="e_fr_energy">   -680.54991818 </i>
    <i name="e_wo_entrp">   -680.54991818 </i>
    <i name="e_0_energy">   -680.54991818 </i>
   </energy>
  </scstep>
  <scstep>
   <time name="diag">    3.97    3.97</time>
   <time name="diis">   16.38   16.38</time>
   <time name="orth">    0.56    0.56</time>
   <time name="total">   21.96   21.98</time>
   <energy>
    <i name="e_fr_energy">   -680.38610622 </i>
    <i name="e_wo_entrp">   -680.38610622 </i>
    <i name="e_0_energy">   -680.38610622 </i>
   </energy>
  </scstep>
  <scstep>
   <time name="diag">    3.97    3.97</time>
   <time name="diis">   18.14   18.14</time>
   <time name="orth">    0.56    0.56</time>
   <time name="total">   23.73   23.74</time>
   <energy>
    <i name="e_fr_energy">   -680.31572932 </i>
    <i name="e_wo_entrp">   -680.31572932 </i>
    <i name="e_0_energy">   -680.31572932 </i>
   </energy>
  </scstep>
  <scstep>
   <time name="diag">    3.96    3.96</time>
   <time name="diis">   18.30   18.30</time>
   <time name="orth">    0.56    0.56</time>
   <time name="total">   23.88   23.90</time>
   <energy>
    <i name="e_fr_energy">   -680.31566948 </i>
    <i name="e_wo_entrp">   -680.31566948 </i>
    <i name="e_0_energy">   -680.31566948 </i>
   </energy>
  </scstep>
  <scstep>
   <time name="diag">    3.97    3.97</time>
   <time name="diis">   18.44   18.44</time>
   <time name="orth">    0.56    0.56</time>
   <time name="total">   24.02   24.03</time>
   <energy>
    <i name="e_fr_energy">   -680.32821234 </i>
    <i name="e_wo_entrp">   -680.32821234 </i>
    <i name="e_0_energy">   -680.32821234 </i>
   </energy>
  </scstep>
  <scstep>
   <time name="diag">    3.97    3.97</time>
   <time name="diis">   18.43   18.43</time>
   <time name="orth">    0.56    0.56</time>
   <time name="total">   24.01   24.02</time>
   <energy>
    <i name="e_fr_energy">   -680.33167421 </i>
    <i name="e_wo_entrp">   -680.33167421 </i>
    <i name="e_0_energy">   -680.33167421 </i>
   </energy>
  </scstep>
  <scstep>
   <time name="diag">    3.96    3.96</time>
   <time name="diis">   19.03   19.03</time>
   <time name="orth">    0.56    0.56</time>
   <time name="total">   24.60   24.62</time>
   <energy>
    <i name="e_fr_energy">   -680.33258850 </i>
    <i name="e_wo_entrp">   -680.33258850 </i>
    <i name="e_0_energy">   -680.33258850 </i>
   </energy>
  </scstep>
  <scstep>
   <time name="diag">    3.96    3.96</time>
   <time name="diis">   18.42   18.42</time>
   <time name="orth">    0.56    0.56</time>
   <time name="total">   24.00   24.01</time>
   <energy>
    <i name="e_fr_energy">   -680.33316279 </i>
    <i name="e_wo_entrp">   -680.33316279 </i>
    <i name="e_0_energy">   -680.33316279 </i>
   </energy>
  </scstep>
  <scstep>
   <time name="diag">    3.96    3.96</time>
   <time name="diis">   19.30   19.29</time>
   <time name="orth">    0.56    0.56</time>
   <time name="total">   24.86   24.88</time>
   <energy>
    <i name="e_fr_energy">   -680.33335604 </i>
    <i name="e_wo_entrp">   -680.33335604 </i>
    <i name="e_0_energy">   -680.33335604 </i>
   </energy>
  </scstep>
  <scstep>
   <time name="diag">    3.95    3.95</time>
   <time name="diis">   19.20   19.20</time>
   <time name="orth">    0.56    0.56</time>
   <time name="total">   24.74   24.75</time>
   <energy>
    <i name="e_fr_energy">   -680.33342597 </i>
    <i name="e_wo_entrp">   -680.33342597 </i>
    <i name="e_0_energy">   -680.33342597 </i>
   </energy>
  </scstep>
  <scstep>
   <time name="diag">    3.97    3.97</time>
   <time name="diis">   19.21   19.21</time>
   <time name="orth">    0.56    0.56</time>
   <time name="total">   24.78   24.79</time>
   <energy>
    <i name="e_fr_energy">   -680.33346342 </i>
    <i name="e_wo_entrp">   -680.33346342 </i>
    <i name="e_0_energy">   -680.33346342 </i>
   </energy>
  </scstep>
  <scstep>
   <time name="diag">    3.96    3.96</time>
   <time name="diis">   17.92   17.92</time>
   <time name="orth">    0.56    0.56</time>
   <time name="total">   23.48   23.50</time>
   <energy>
    <i name="e_fr_energy">   -680.33347229 </i>
    <i name="e_wo_entrp">   -680.33347229 </i>
    <i name="e_0_energy">   -680.33347229 </i>
   </energy>
  </scstep>
  <scstep>
   <time name="diag">    3.98    3.98</time>
   <time name="diis">   18.30   18.29</time>
   <time name="orth">    0.56    0.56</time>
   <time name="total">   23.87   23.88</time>
   <energy>
    <i name="e_fr_energy">   -680.33347927 </i>
    <i name="e_wo_entrp">   -680.33347927 </i>
    <i name="e_0_energy">   -680.33347927 </i>
   </energy>
  </scstep>
  <scstep>
   <time name="diag">    3.96    3.96</time>
   <time name="diis">   16.31   16.31</time>
   <time name="orth">    0.56    0.56</time>
   <time name="total">   21.88   21.89</time>
   <energy>
    <i name="e_fr_energy">   -680.33348069 </i>
    <i name="e_wo_entrp">   -680.33348069 </i>
    <i name="e_0_energy">   -680.33348069 </i>
   </energy>
  </scstep>
  <scstep>
   <time name="diag">    3.95    3.95</time>
   <time name="diis">   16.32   16.32</time>
   <time name="orth">    0.56    0.56</time>
   <time name="total">   21.89   21.90</time>
   <energy>
    <i name="e_fr_energy">   -680.33348179 </i>
    <i name="e_wo_entrp">   -680.33348179 </i>
    <i name="e_0_energy">   -680.33348179 </i>
   </energy>
  </scstep>
  <scstep>
   <time name="diag">    3.95    3.95</time>
   <time name="diis">   13.60   13.59</time>
   <time name="orth">    0.56    0.56</time>
   <time name="total">   18.17   18.18</time>
   <energy>
    <i name="alphaZ">   1624.69313165 </i>
    <i name="ewald"> -26710.37146774 </i>
    <i name="hartreedc"> -11064.88935380 </i>
    <i name="XCdc">   1512.20536416 </i>
    <i name="pawpsdc">  45450.16203783 </i>
    <i name="pawaedc"> -44781.57783430 </i>
    <i name="eentropy">      0.00000000 </i>
    <i name="bandstr">  -3791.40158869 </i>
    <i name="atom">  37080.84622879 </i>
    <i name="e_fr_energy">   -680.33348209 </i>
    <i name="e_wo_entrp">   -680.33348209 </i>
    <i name="e_0_energy">   -680.33348209 </i>
   </energy>
  </scstep>
  <structure>
   <crystal>
    <varray name="basis" >
     <v>       5.15062953      -2.97212168       9.22197858 </v>
     <v>       0.00247294       5.94583037       9.22111589 </v>
     <v>      -5.14802253      -2.97347203       9.22009452 </v>
    </varray>
    <i name="volume">    846.95310641 </i>
    <varray name="rec_basis" >
     <v>       0.09710083      -0.05607549       0.03613177 </v>
     <v>      -0.00002131       0.11212456       0.03614817 </v>
     <v>      -0.09709935      -0.05605003       0.03616743 </v>
    </varray>
   </crystal>
   <varray name="positions" >
    <v>       0.13834752       0.13936271       0.13984335 </v>
    <v>       0.39146324       0.38999630       0.39085144 </v>
    <v>       0.14028321       0.14032414       0.64092124 </v>
    <v>       0.39173469       0.39088444       0.89059988 </v>
    <v>       0.14005761       0.63914415       0.13990376 </v>
    <v>       0.38998511       0.89022976       0.39046082 </v>
    <v>       0.14027342       0.63856692       0.63942290 </v>
    <v>       0.39066873       0.89122478       0.89017412 </v>
    <v>       0.63968950       0.14081636       0.13851063 </v>
    <v>       0.89081879       0.39199278       0.39127564 </v>
    <v>       0.64044608       0.13979598       0.63895884 </v>
    <v>       0.89104424       0.39188824       0.88993991 </v>
    <v>       0.63987068       0.64050964       0.14005521 </v>
    <v>       0.88952244       0.89019616       0.39154151 </v>
    <v>       0.64095434       0.64008558       0.64144699 </v>
    <v>       0.89103108       0.89076076       0.89134632 </v>
    <v>       0.99959237       0.00150112       0.99675172 </v>
    <v>       0.99938324       0.00003493       0.49763958 </v>
    <v>       0.25168038       0.24891337       0.74959517 </v>
    <v>       0.99749990       0.49794372       0.00086033 </v>
    <v>       0.00052440       0.49715140       0.50088067 </v>
    <v>       0.49988249       0.99738472       0.00090131 </v>
    <v>       0.49954620       0.50003968       0.99785757 </v>
    <v>       0.75097315       0.74942469       0.24984287 </v>
    <v>       0.49985523       0.50129758       0.49655071 </v>
    <v>       0.74940214       0.75095878       0.74802348 </v>
    <v>       0.05623360       0.18120304       0.36059596 </v>
    <v>       0.36055215       0.05618073       0.18135900 </v>
    <v>       0.18067803       0.36043515       0.05635112 </v>
    <v>       0.43164615       0.30579781       0.11007695 </v>
    <v>       0.10933811       0.43208088       0.30572184 </v>
    <v>       0.30616879       0.11038237       0.43144631 </v>
    <v>       0.05540035       0.18155956       0.86034038 </v>
    <v>       0.35943918       0.05639020       0.68203455 </v>
    <v>       0.18159346       0.36067916       0.55556672 </v>
    <v>       0.43176800       0.30520898       0.61104129 </v>
    <v>       0.11066152       0.43074915       0.80539644 </v>
    <v>       0.30515946       0.11079423       0.93190663 </v>
    <v>       0.05604537       0.68076856       0.36081137 </v>
    <v>       0.36061507       0.55618152       0.18081868 </v>
    <v>       0.18040413       0.86090372       0.05629587 </v>
    <v>       0.43096027       0.80670950       0.10983535 </v>
    <v>       0.11018018       0.93120277       0.30647725 </v>
    <v>       0.30631393       0.60963452       0.43142758 </v>
    <v>       0.05642617       0.67983109       0.86072292 </v>
    <v>       0.36082901       0.55621291       0.68039936 </v>
    <v>       0.18050111       0.86073339       0.55625759 </v>
    <v>       0.43105925       0.80638098       0.60992686 </v>
    <v>       0.10974163       0.93076687       0.80662904 </v>
    <v>       0.30592914       0.60973059       0.93157562 </v>
    <v>       0.55668960       0.18089021       0.36049958 </v>
    <v>       0.86099568       0.05588109       0.18065345 </v>
    <v>       0.68094161       0.36072792       0.05606070 </v>
    <v>       0.93094987       0.30643726       0.10970186 </v>
    <v>       0.61015919       0.43137998       0.30635721 </v>
    <v>       0.80662739       0.10979363       0.43135599 </v>
    <v>       0.55625493       0.18016866       0.86082204 </v>
    <v>       0.86060460       0.05601788       0.68054061 </v>
    <v>       0.68056339       0.36084158       0.55626059 </v>
    <v>       0.93128773       0.30623948       0.60979445 </v>
    <v>       0.61008613       0.43101265       0.80636497 </v>
    <v>       0.80623116       0.10929440       0.93147945 </v>
    <v>       0.55554077       0.68183433       0.36007734 </v>
    <v>       0.86007458       0.55634829       0.18046819 </v>
    <v>       0.68107200       0.86046774       0.05575260 </v>
    <v>       0.93136114       0.80492582       0.11095065 </v>
    <v>       0.61067752       0.93165297       0.30547765 </v>
    <v>       0.80503784       0.61074302       0.43111591 </v>
    <v>       0.55556968       0.68082022       0.86090541 </v>
    <v>       0.86059508       0.55581627       0.68050717 </v>
    <v>       0.68097931       0.85972506       0.55655493 </v>
    <v>       0.93138973       0.80539064       0.61084254 </v>
    <v>       0.61024363       0.93134011       0.80571432 </v>
    <v>       0.80584636       0.61083297       0.93009391 </v>
    <v>       0.24862253       0.24992729       0.24762435 </v>
    <v>       0.24806756       0.74806531       0.24849505 </v>
    <v>       0.24752603       0.74745881       0.74934160 </v>
    <v>       0.74730972       0.24776208       0.24918815 </v>
    <v>       0.49682629       0.99767190       0.50015434 </v>
    <v>       0.74834988       0.24827406       0.74832874 </v>
   </varray>
  </structure>
  <varray name="forces" >
   <v>       0.00083797      -0.00023291       0.00278173 </v>
   <v>      -0.00032282       0.00093254       0.00122904 </v>
   <v>       0.00007673      -0.00038176       0.00113837 </v>
   <v>      -0.00084511       0.00070928       0.00144028 </v>
   <v>       0.00022979      -0.00072305       0.00232651 </v>
   <v>       0.00051085      -0.00061809       0.00171062 </v>
   <v>       0.00025471       0.00102846       0.00263003 </v>
   <v>       0.00102289       0.00055866       0.00135687 </v>
   <v>      -0.00044368       0.00038154       0.00216162 </v>
   <v>       0.00093765      -0.00118832       0.00075058 </v>
   <v>      -0.00000987       0.00034229       0.00255848 </v>
   <v>      -0.00041893      -0.00189022       0.00066907 </v>
   <v>      -0.00134012      -0.00081362       0.00188172 </v>
   <v>      -0.00040591       0.00059842       0.00145540 </v>
   <v>      -0.00000684       0.00065553       0.00114453 </v>
   <v>      -0.00033310       0.00159797       0.00130626 </v>
   <v>       0.00816871       0.01154962       0.07167505 </v>
   <v>       0.00408564       0.00501776       0.06511891 </v>
   <v>       0.00622409      -0.00419303       0.08026365 </v>
   <v>      -0.01142614      -0.00343957       0.06755044 </v>
   <v>      -0.00307933      -0.01326182       0.07522806 </v>
   <v>       0.00059063      -0.01133750       0.07196563 </v>
   <v>       0.00691875       0.00746300       0.06744113 </v>
   <v>       0.00507916      -0.00773584       0.08386058 </v>
   <v>       0.00775852       0.00985955       0.06823720 </v>
   <v>       0.00382307       0.00474883       0.07531611 </v>
   <v>      -0.01045113      -0.11283590      -0.01465824 </v>
   <v>       0.10142615       0.04535118      -0.01259701 </v>
   <v>      -0.09305438       0.05781010      -0.01007521 </v>
   <v>      -0.12470623       0.03610599      -0.03719224 </v>
   <v>       0.03179774      -0.12402893      -0.03410094 </v>
   <v>       0.09429275       0.06494144      -0.01482751 </v>
   <v>      -0.03389339      -0.12128649      -0.03445113 </v>
   <v>       0.11848282       0.03635659      -0.03332068 </v>
   <v>      -0.08747066       0.08698936      -0.03201250 </v>
   <v>      -0.11953766       0.03174843      -0.03064516 </v>
   <v>       0.02708009      -0.11612285      -0.02303432 </v>
   <v>       0.08785776       0.08250571      -0.02942049 </v>
   <v>      -0.00441620      -0.10776978      -0.00644511 </v>
   <v>       0.09684741       0.05113468      -0.00857235 </v>
   <v>      -0.08933595       0.06118691      -0.00966239 </v>
   <v>      -0.11312472       0.03722473      -0.02882352 </v>
   <v>       0.02395576      -0.11825708      -0.02866990 </v>
   <v>       0.09226864       0.08145504      -0.03008558 </v>
   <v>      -0.00155237      -0.10562861      -0.00563709 </v>
   <v>       0.09653356       0.05160279      -0.00820207 </v>
   <v>      -0.09113820       0.06189969      -0.01259002 </v>
   <v>      -0.10030145       0.05095452      -0.01485213 </v>
   <v>       0.02553256      -0.11803245      -0.03043421 </v>
   <v>       0.09242709       0.08457573      -0.03386348 </v>
   <v>      -0.00596414      -0.11130608      -0.01144135 </v>
   <v>       0.09889185       0.05081298      -0.00988745 </v>
   <v>      -0.09152883       0.06113845      -0.00981877 </v>
   <v>      -0.11023409       0.03960883      -0.02400754 </v>
   <v>       0.02390184      -0.11896639      -0.03002290 </v>
   <v>       0.08943493       0.08078021      -0.03165183 </v>
   <v>      -0.00740774      -0.10996584      -0.00943556 </v>
   <v>       0.09765694       0.04903452      -0.01135777 </v>
   <v>      -0.08962088       0.06051865      -0.00878387 </v>
   <v>      -0.11640893       0.03673721      -0.02998829 </v>
   <v>       0.02638240      -0.11839689      -0.03186539 </v>
   <v>       0.09169606       0.08413587      -0.02791501 </v>
   <v>      -0.03154643      -0.12116373      -0.03357955 </v>
   <v>       0.11351423       0.03323053      -0.02845436 </v>
   <v>      -0.09007938       0.08722777      -0.03260697 </v>
   <v>      -0.12136166       0.03115220      -0.03280017 </v>
   <v>       0.01089414      -0.11131295      -0.01375546 </v>
   <v>       0.08862134       0.09082398      -0.03098125 </v>
   <v>      -0.03006090      -0.11842828      -0.03251172 </v>
   <v>       0.11601068       0.03119893      -0.02602249 </v>
   <v>      -0.09086590       0.08221822      -0.02957920 </v>
   <v>      -0.11364910       0.03576451      -0.02930640 </v>
   <v>       0.02582593      -0.11572484      -0.02747146 </v>
   <v>       0.08558294       0.07596198      -0.02108348 </v>
   <v>       0.00592792       0.00343136       0.06027189 </v>
   <v>      -0.00261084      -0.00120486       0.05754439 </v>
   <v>      -0.00611890      -0.00087326       0.05751930 </v>
   <v>      -0.00429626      -0.00111555       0.05360701 </v>
   <v>      -0.00977398      -0.00481025       0.05432912 </v>
   <v>      -0.00022051       0.00198419       0.06203193 </v>
  </varray>
  <varray name="stress" >
   <v>     -23.61527963      -0.00511150       0.01844443 </v>
   <v>      -0.00511125     -23.62041616       0.00219496 </v>
   <v>       0.01844416       0.00219482     -21.63152232 </v>
  </varray>
  <energy>
   <i name="e_fr_energy">   -680.33348209 </i>
   <i name="e_wo_entrp">   -680.33348209 </i>
   <i name="e_0_energy">      0.00000000 </i>
  </energy>
  <time name="totalsc">  615.57  615.82</time>
 </calculation>
 <calculation>
  <scstep>
   <time name="dav">   30.41   30.41</time>
   <time name="total">   31.48   31.48</time>
   <energy>
    <i name="alphaZ">   1624.69313165 </i>
    <i name="ewald"> -26703.05316123 </i>
    <i name="hartreedc"> -11070.62326881 </i>
    <i name="XCdc">   1512.28182246 </i>
    <i name="pawpsdc">  45450.26202525 </i>
    <i name="pawaedc"> -44781.66534517 </i>
    <i name="eentropy">      0.00000000 </i>
    <i name="bandstr">  -3793.08298569 </i>
    <i name="atom">  37080.84622879 </i>
    <i name="e_fr_energy">   -680.34155276 </i>
    <i name="e_wo_entrp">   -680.34155276 </i>
    <i name="e_0_energy">   -680.34155276 </i>
   </energy>
  </scstep>
  <scstep>
   <time name="diag">    3.96    3.95</time>
   <time name="diis">   13.52   13.52</time>
   <time name="orth">    0.56    0.56</time>
   <time name="total">   19.08   19.10</time>
   <energy>
    <i name="e_fr_energy">   -680.34345220 </i>
    <i name="e_wo_entrp">   -680.34345220 </i>
    <i name="e_0_energy">   -680.34345220 </i>
   </energy>
  </scstep>
  <scstep>
   <time name="diag">    3.95    3.95</time>
   <time name="diis">   15.33   15.33</time>
   <time name="orth">    0.56    0.56</time>
   <time name="total">   20.88   20.88</time>
   <energy>
    <i name="e_fr_energy">   -680.34321092 </i>
    <i name="e_wo_entrp">   -680.34321092 </i>
    <i name="e_0_energy">   -680.34321092 </i>
   </energy>
  </scstep>
  <scstep>
   <time name="diag">    3.95    3.95</time>
   <time name="diis">   19.47   19.47</time>
   <time name="orth">    0.56    0.56</time>
   <time name="total">   25.03   25.03</time>
   <energy>
    <i name="e_fr_energy">   -680.34321208 </i>
    <i name="e_wo_entrp">   -680.34321208 </i>
    <i name="e_0_energy">   -680.34321208 </i>
   </energy>
  </scstep>
  <scstep>
   <time name="diag">    3.96    3.96</time>
   <time name="diis">   19.02   19.02</time>
   <time name="orth">    0.56    0.56</time>
   <time name="total">   24.58   24.59</time>
   <energy>
    <i name="e_fr_energy">   -680.34321513 </i>
    <i name="e_wo_entrp">   -680.34321513 </i>
    <i name="e_0_energy">   -680.34321513 </i>
   </energy>
  </scstep>
  <scstep>
   <time name="diag">    3.95    3.95</time>
   <time name="diis">   16.48   16.48</time>
   <time name="orth">    0.56    0.56</time>
   <time name="total">   22.03   22.04</time>
   <energy>
    <i name="e_fr_energy">   -680.34321662 </i>
    <i name="e_wo_entrp">   -680.34321662 </i>
    <i name="e_0_energy">   -680.34321662 </i>
   </energy>
  </scstep>
  <scstep>
   <time name="diag">    3.98    3.98</time>
   <time name="diis">   16.43   16.43</time>
   <time name="orth">    0.56    0.56</time>
   <time name="total">   22.01   22.03</time>
   <energy>
    <i name="e_fr_energy">   -680.34321774 </i>
    <i name="e_wo_entrp">   -680.34321774 </i>
    <i name="e_0_energy">   -680.34321774 </i>
   </energy>
  </scstep>
  <scstep>
   <time name="diag">    3.94    3.94</time>
   <time name="diis">   11.75   11.75</time>
   <time name="orth">    0.56    0.56</time>
   <time name="total">   16.32   16.33</time>
   <energy>
    <i name="alphaZ">   1624.69313165 </i>
    <i name="ewald"> -26703.05316123 </i>
    <i name="hartreedc"> -11072.37394459 </i>
    <i name="XCdc">   1512.34644991 </i>
    <i name="pawpsdc">  45527.01827541 </i>
    <i name="pawaedc"> -44858.31307736 </i>
    <i name="eentropy">      0.00000000 </i>
    <i name="bandstr">  -3791.50712067 </i>
    <i name="atom">  37080.84622879 </i>
    <i name="e_fr_energy">   -680.34321811 </i>
    <i name="e_wo_entrp">   -680.34321811 </i>
    <i name="e_0_energy">   -680.34321811 </i>
   </energy>
  </scstep>
  <structure>
   <crystal>
    <varray name="basis" >
     <v>       5.15032240      -2.97193335       9.22315495 </v>
     <v>       0.00248614       5.94545438       9.22228494 </v>
     <v>      -5.14768013      -2.97327858       9.22125249 </v>
    </varray>
    <i name="volume">    846.95310641 </i>
    <varray name="rec_basis" >
     <v>       0.09710686      -0.05607902       0.03612704 </v>
     <v>      -0.00002132       0.11213168       0.03614357 </v>
     <v>      -0.09710557      -0.05605365       0.03616304 </v>
    </varray>
   </crystal>
   <varray name="positions" >
    <v>       0.13835034       0.13936379       0.13984381 </v>
    <v>       0.39146267       0.38999846       0.39085178 </v>
    <v>       0.14028422       0.14032412       0.64092204 </v>
    <v>       0.39173368       0.39088634       0.89060125 </v>
    <v>       0.14005974       0.63914419       0.13990524 </v>
    <v>       0.38998722       0.89022966       0.39046149 </v>
    <v>       0.14027432       0.63856997       0.63942309 </v>
    <v>       0.39067042       0.89122639       0.89017294 </v>
    <v>       0.63968970       0.14081811       0.13851207 </v>
    <v>       0.89082146       0.39199124       0.39127568 </v>
    <v>       0.64044712       0.13979788       0.63895992 </v>
    <v>       0.89104554       0.39188552       0.88994238 </v>
    <v>       0.63987044       0.64050930       0.14005873 </v>
    <v>       0.88952215       0.89019789       0.39154236 </v>
    <v>       0.64095440       0.64008725       0.64144706 </v>
    <v>       0.89103000       0.89076404       0.89134618 </v>
    <v>       0.99963196       0.00155735       0.99676839 </v>
    <v>       0.99941897       0.00007714       0.49766385 </v>
    <v>       0.25173450       0.24894856       0.74963184 </v>
    <v>       0.99752195       0.49797348       0.00091454 </v>
    <v>       0.00057017       0.49716924       0.50093513 </v>
    <v>       0.49993015       0.99740397       0.00094734 </v>
    <v>       0.49958514       0.50008707       0.99787710 </v>
    <v>       0.75103042       0.74945601       0.24988590 </v>
    <v>       0.49989381       0.50134927       0.49656753 </v>
    <v>       0.74944304       0.75100589       0.74805367 </v>
    <v>       0.05630282       0.18101227       0.36069450 </v>
    <v>       0.36065129       0.05624770       0.18117308 </v>
    <v>       0.18049507       0.36052372       0.05642972 </v>
    <v>       0.43142215       0.30583699       0.11020344 </v>
    <v>       0.10946562       0.43186176       0.30575992 </v>
    <v>       0.30624084       0.11047997       0.43125336 </v>
    <v>       0.05543314       0.18134472       0.86046837 </v>
    <v>       0.35955875       0.05643172       0.68182111 </v>
    <v>       0.18138320       0.36080361       0.55560232 </v>
    <v>       0.43155822       0.30524450       0.61116748 </v>
    <v>       0.11078177       0.43054865       0.80544053 </v>
    <v>       0.30520059       0.11091270       0.93170084 </v>
    <v>       0.05612325       0.68059031       0.36090162 </v>
    <v>       0.36070519       0.55625998       0.18063661 </v>
    <v>       0.18022387       0.86099798       0.05636673 </v>
    <v>       0.43075601       0.80675487       0.10994904 </v>
    <v>       0.11029483       0.93099586       0.30652450 </v>
    <v>       0.30636175       0.60975093       0.43121609 </v>
    <v>       0.05650676       0.67965674       0.86080784 </v>
    <v>       0.36091850       0.55629233       0.68021755 </v>
    <v>       0.18031622       0.86082728       0.55632886 </v>
    <v>       0.43086917       0.80645593       0.61001870 </v>
    <v>       0.10985739       0.93055940       0.80667298 </v>
    <v>       0.30597269       0.60985009       0.93135940 </v>
    <v>       0.55676557       0.18070360       0.36059227 </v>
    <v>       0.86108825       0.05595834       0.18046809 </v>
    <v>       0.68075823       0.36082203       0.05613459 </v>
    <v>       0.93075026       0.30648901       0.10981208 </v>
    <v>       0.61027363       0.43117122       0.30640442 </v>
    <v>       0.80667096       0.10990813       0.43114821 </v>
    <v>       0.55632883       0.17998528       0.86091671 </v>
    <v>       0.86069610       0.05609148       0.68035765 </v>
    <v>       0.68038374       0.36093521       0.55633284 </v>
    <v>       0.93107864       0.30628344       0.60991254 </v>
    <v>       0.61020263       0.43080384       0.80640726 </v>
    <v>       0.80627715       0.10941630       0.93126773 </v>
    <v>       0.55557721       0.68162015       0.36020238 </v>
    <v>       0.86019226       0.55638730       0.18026682 </v>
    <v>       0.68085756       0.86059226       0.05579136 </v>
    <v>       0.93114816       0.80495925       0.11107876 </v>
    <v>       0.61077598       0.93146513       0.30554544 </v>
    <v>       0.80507247       0.61087417       0.43090148 </v>
    <v>       0.55560655       0.68061104       0.86102671 </v>
    <v>       0.86071918       0.55585324       0.68030521 </v>
    <v>       0.68076942       0.85984303       0.55660044 </v>
    <v>       0.93118567       0.80543338       0.61095790 </v>
    <v>       0.61035948       0.93113794       0.80575752 </v>
    <v>       0.80589396       0.61094518       0.92990098 </v>
    <v>       0.24865959       0.24996439       0.24764478 </v>
    <v>       0.24809496       0.74809346       0.24852981 </v>
    <v>       0.24754822       0.74748748       0.74938102 </v>
    <v>       0.74733262       0.24778831       0.24922315 </v>
    <v>       0.49684487       0.99769252       0.50020041 </v>
    <v>       0.74838040       0.24830973       0.74835991 </v>
   </varray>
  </structure>
  <varray name="forces" >
   <v>       0.00036972      -0.00036372       0.00189482 </v>
   <v>       0.00087599       0.00060111       0.00066359 </v>
[...]
       <r>    1.6813    1.0000 </r>
       <r>    1.6908    1.0000 </r>
       <r>    1.7055    1.0000 </r>
       <r>    1.7233    1.0000 </r>
       <r>    1.8112    1.0000 </r>
       <r>    1.8314    1.0000 </r>
       <r>    1.8474    1.0000 </r>
       <r>    1.8597    1.0000 </r>
       <r>    1.8937    1.0000 </r>
       <r>    1.9177    1.0000 </r>
       <r>    1.9381    1.0000 </r>
       <r>    1.9742    1.0000 </r>
       <r>    1.9950    1.0000 </r>
       <r>    2.0033    1.0000 </r>
       <r>    2.0226    1.0000 </r>
       <r>    2.0323    1.0000 </r>
       <r>    2.0489    1.0000 </r>
       <r>    2.0774    1.0000 </r>
       <r>    2.0891    1.0000 </r>
       <r>    2.1019    1.0000 </r>
       <r>    2.1244    1.0000 </r>
       <r>    2.1455    1.0000 </r>
       <r>    2.1553    1.0000 </r>
       <r>    2.1990    1.0000 </r>
       <r>    2.2423    1.0000 </r>
       <r>    2.2518    1.0000 </r>
       <r>    2.2620    1.0000 </r>
       <r>    2.2715    1.0000 </r>
       <r>    2.2771    1.0000 </r>
       <r>    2.2893    1.0000 </r>
       <r>    2.3034    1.0000 </r>
       <r>    2.3189    1.0000 </r>
       <r>    2.3701    1.0000 </r>
       <r>    2.3932    1.0000 </r>
       <r>    2.4192    1.0000 </r>
       <r>    2.4278    1.0000 </r>
       <r>    2.5659    1.0000 </r>
       <r>    2.5840    1.0000 </r>
       <r>    2.5893    1.0000 </r>
       <r>    2.6061    1.0000 </r>
       <r>    2.6133    1.0000 </r>
       <r>    2.6340    1.0000 </r>
       <r>    2.6406    1.0000 </r>
       <r>    2.6504    1.0000 </r>
       <r>    2.6646    1.0000 </r>
       <r>    2.6953    1.0000 </r>
       <r>    6.3732    0.0000 </r>
       <r>    6.3982    0.0000 </r>
       <r>    6.5375    0.0000 </r>
       <r>    6.5742    0.0000 </r>
       <r>    6.6140    0.0000 </r>
       <r>    6.6307    0.0000 </r>
       <r>    6.6798    0.0000 </r>
       <r>    6.6892    0.0000 </r>
       <r>    6.7158    0.0000 </r>
       <r>    6.7376    0.0000 </r>
       <r>    6.7634    0.0000 </r>
       <r>    6.7846    0.0000 </r>
       <r>    6.8069    0.0000 </r>
       <r>    6.8490    0.0000 </r>
       <r>    6.8592    0.0000 </r>
       <r>    6.9186    0.0000 </r>
       <r>    6.9516    0.0000 </r>
       <r>    7.1203    0.0000 </r>
       <r>    7.1699    0.0000 </r>
       <r>    7.1855    0.0000 </r>
       <r>    7.2150    0.0000 </r>
       <r>    7.2959    0.0000 </r>
       <r>    7.3886    0.0000 </r>
       <r>    7.4175    0.0000 </r>
       <r>    7.5592    0.0000 </r>
       <r>    7.5924    0.0000 </r>
       <r>    7.6444    0.0000 </r>
       <r>    7.6977    0.0000 </r>
       <r>    7.7264    0.0000 </r>
       <r>    7.7608    0.0000 </r>
       <r>    7.8409    0.0000 </r>
       <r>    7.8622    0.0000 </r>
       <r>    7.9437    0.0000 </r>
       <r>    8.0140    0.0000 </r>
       <r>    8.0385    0.0000 </r>
       <r>    8.0580    0.0000 </r>
       <r>    8.0852    0.0000 </r>
       <r>    8.1191    0.0000 </r>
       <r>    8.1417    0.0000 </r>
       <r>    8.2145    0.0000 </r>
       <r>    8.2915    0.0000 </r>
       <r>    8.3331    0.0000 </r>
       <r>    8.3880    0.0000 </r>
       <r>    8.4126    0.0000 </r>
       <r>    8.4370    0.0000 </r>
       <r>    8.4672    0.0000 </r>
       <r>    8.4943    0.0000 </r>
       <r>    8.5986    0.0000 </r>
       <r>   10.2542    0.0000 </r>
       <r>   10.4460    0.0000 </r>
       <r>   10.4830    0.0000 </r>
       <r>   10.5462    0.0000 </r>
       <r>   10.6212    0.0000 </r>
       <r>   10.6415    0.0000 </r>
       <r>   10.7273    0.0000 </r>
       <r>   10.7672    0.0000 </r>
      </set>
      <set comment="kpoint 36">
       <r>  -51.4064    1.0000 </r>
       <r>  -51.4033    1.0000 </r>
       <r>  -51.3860    1.0000 </r>
       <r>  -51.3814    1.0000 </r>
       <r>  -51.3689    1.0000 </r>
       <r>  -51.3647    1.0000 </r>
       <r>  -51.3442    1.0000 </r>
       <r>  -51.3411    1.0000 </r>
       <r>  -51.3387    1.0000 </r>
       <r>  -51.3158    1.0000 </r>
       <r>  -27.7074    1.0000 </r>
       <r>  -27.7050    1.0000 </r>
       <r>  -27.7024    1.0000 </r>
       <r>  -27.6949    1.0000 </r>
       <r>  -27.6912    1.0000 </r>
       <r>  -27.6840    1.0000 </r>
       <r>  -27.6732    1.0000 </r>
       <r>  -27.6650    1.0000 </r>
       <r>  -27.6630    1.0000 </r>
       <r>  -27.6518    1.0000 </r>
       <r>  -27.6369    1.0000 </r>
       <r>  -27.6304    1.0000 </r>
       <r>  -27.6258    1.0000 </r>
       <r>  -27.6238    1.0000 </r>
       <r>  -27.6215    1.0000 </r>
       <r>  -27.6077    1.0000 </r>
       <r>  -27.6049    1.0000 </r>
       <r>  -27.6002    1.0000 </r>
       <r>  -27.5903    1.0000 </r>
       <r>  -27.5869    1.0000 </r>
       <r>  -27.5693    1.0000 </r>
       <r>  -27.5676    1.0000 </r>
       <r>  -27.5563    1.0000 </r>
       <r>  -27.5419    1.0000 </r>
       <r>  -27.5400    1.0000 </r>
       <r>  -27.5357    1.0000 </r>
       <r>  -27.5216    1.0000 </r>
       <r>  -27.4973    1.0000 </r>
       <r>  -27.4921    1.0000 </r>
       <r>  -27.4775    1.0000 </r>
       <r>  -14.1941    1.0000 </r>
       <r>  -14.1405    1.0000 </r>
       <r>  -13.9249    1.0000 </r>
       <r>  -13.8845    1.0000 </r>
       <r>  -13.8752    1.0000 </r>
       <r>  -13.8063    1.0000 </r>
       <r>  -13.7771    1.0000 </r>
       <r>  -13.7512    1.0000 </r>
       <r>  -13.5966    1.0000 </r>
       <r>  -13.5615    1.0000 </r>
       <r>  -13.5454    1.0000 </r>
       <r>  -13.5408    1.0000 </r>
       <r>  -13.5383    1.0000 </r>
       <r>  -13.5204    1.0000 </r>
       <r>  -13.4594    1.0000 </r>
       <r>  -13.4545    1.0000 </r>
       <r>  -13.4491    1.0000 </r>
       <r>  -13.4342    1.0000 </r>
       <r>  -13.4092    1.0000 </r>
       <r>  -13.3964    1.0000 </r>
       <r>  -13.3901    1.0000 </r>
       <r>  -13.3771    1.0000 </r>
       <r>  -13.3747    1.0000 </r>
       <r>  -13.3581    1.0000 </r>
       <r>  -13.0234    1.0000 </r>
       <r>  -12.9800    1.0000 </r>
       <r>  -12.9552    1.0000 </r>
       <r>  -12.9323    1.0000 </r>
       <r>  -12.9208    1.0000 </r>
       <r>  -12.9177    1.0000 </r>
       <r>  -12.9052    1.0000 </r>
       <r>  -12.9012    1.0000 </r>
       <r>  -12.8820    1.0000 </r>
       <r>  -12.8679    1.0000 </r>
       <r>  -12.8623    1.0000 </r>
       <r>  -12.8395    1.0000 </r>
       <r>  -12.8348    1.0000 </r>
       <r>  -12.7984    1.0000 </r>
       <r>  -12.7865    1.0000 </r>
       <r>  -12.7732    1.0000 </r>
       <r>  -12.7721    1.0000 </r>
       <r>  -12.7644    1.0000 </r>
       <r>  -12.7540    1.0000 </r>
       <r>  -12.7020    1.0000 </r>
       <r>  -12.6612    1.0000 </r>
       <r>  -12.6399    1.0000 </r>
       <r>  -12.6192    1.0000 </r>
       <r>  -12.6085    1.0000 </r>
       <r>   -1.8625    1.0000 </r>
       <r>   -1.8511    1.0000 </r>
       <r>   -1.8462    1.0000 </r>
       <r>   -1.8169    1.0000 </r>
       <r>   -1.7611    1.0000 </r>
       <r>   -1.7279    1.0000 </r>
       <r>   -1.7218    1.0000 </r>
       <r>   -1.6612    1.0000 </r>
       <r>   -1.6530    1.0000 </r>
       <r>   -1.6442    1.0000 </r>
       <r>   -1.6429    1.0000 </r>
       <r>   -1.6281    1.0000 </r>
       <r>   -1.6255    1.0000 </r>
       <r>   -1.6242    1.0000 </r>
       <r>   -1.6079    1.0000 </r>
       <r>   -1.5859    1.0000 </r>
       <r>   -1.5622    1.0000 </r>
       <r>   -1.5559    1.0000 </r>
       <r>   -1.5543    1.0000 </r>
       <r>   -1.5424    1.0000 </r>
       <r>   -1.5393    1.0000 </r>
       <r>   -1.5361    1.0000 </r>
       <r>   -1.4141    1.0000 </r>
       <r>   -1.3804    1.0000 </r>
       <r>   -1.3531    1.0000 </r>
       <r>   -1.3271    1.0000 </r>
       <r>   -1.3176    1.0000 </r>
       <r>   -1.2992    1.0000 </r>
       <r>   -1.2775    1.0000 </r>
       <r>   -1.2615    1.0000 </r>
       <r>   -1.1320    1.0000 </r>
       <r>   -1.1291    1.0000 </r>
       <r>   -1.1072    1.0000 </r>
       <r>   -1.1038    1.0000 </r>
       <r>   -0.7285    1.0000 </r>
       <r>   -0.6433    1.0000 </r>
       <r>   -0.6286    1.0000 </r>
       <r>   -0.6160    1.0000 </r>
       <r>   -0.5948    1.0000 </r>
       <r>   -0.5871    1.0000 </r>
       <r>   -0.5793    1.0000 </r>
       <r>   -0.5648    1.0000 </r>
       <r>   -0.3393    1.0000 </r>
       <r>   -0.3184    1.0000 </r>
       <r>   -0.3167    1.0000 </r>
       <r>   -0.3057    1.0000 </r>
       <r>   -0.3025    1.0000 </r>
       <r>   -0.2946    1.0000 </r>
       <r>   -0.0719    1.0000 </r>
       <r>   -0.0524    1.0000 </r>
       <r>   -0.0434    1.0000 </r>
       <r>   -0.0297    1.0000 </r>
       <r>   -0.0218    1.0000 </r>
       <r>   -0.0120    1.0000 </r>
       <r>    0.0707    1.0000 </r>
       <r>    0.0757    1.0000 </r>
       <r>    0.1051    1.0000 </r>
       <r>    0.1070    1.0000 </r>
       <r>    0.1111    1.0000 </r>
       <r>    0.1162    1.0000 </r>
       <r>    0.1862    1.0000 </r>
       <r>    0.2031    1.0000 </r>
       <r>    0.2095    1.0000 </r>
       <r>    0.2151    1.0000 </r>
       <r>    0.2206    1.0000 </r>
       <r>    0.2251    1.0000 </r>
       <r>    0.5654    1.0000 </r>
       <r>    0.5798    1.0000 </r>
       <r>    0.5928    1.0000 </r>
       <r>    0.6216    1.0000 </r>
       <r>    0.6272    1.0000 </r>
       <r>    0.6505    1.0000 </r>
       <r>    0.8021    1.0000 </r>
       <r>    0.8135    1.0000 </r>
       <r>    0.8150    1.0000 </r>
       <r>    0.8361    1.0000 </r>
       <r>    0.8460    1.0000 </r>
       <r>    0.8592    1.0000 </r>
       <r>    1.2394    1.0000 </r>
       <r>    1.2446    1.0000 </r>
       <r>    1.2669    1.0000 </r>
       <r>    1.2702    1.0000 </r>
       <r>    1.3289    1.0000 </r>
       <r>    1.3455    1.0000 </r>
       <r>    1.3477    1.0000 </r>
       <r>    1.3694    1.0000 </r>
       <r>    1.3740    1.0000 </r>
       <r>    1.3851    1.0000 </r>
       <r>    1.3906    1.0000 </r>
       <r>    1.4103    1.0000 </r>
       <r>    1.4175    1.0000 </r>
       <r>    1.4214    1.0000 </r>
       <r>    1.4331    1.0000 </r>
       <r>    1.4521    1.0000 </r>
       <r>    1.5311    1.0000 </r>
       <r>    1.5566    1.0000 </r>
       <r>    1.6536    1.0000 </r>
       <r>    1.6733    1.0000 </r>
       <r>    1.7650    1.0000 </r>
       <r>    1.7692    1.0000 </r>
       <r>    1.7961    1.0000 </r>
       <r>    1.7988    1.0000 </r>
       <r>    1.8076    1.0000 </r>
       <r>    1.8204    1.0000 </r>
       <r>    1.9060    1.0000 </r>
       <r>    1.9124    1.0000 </r>
       <r>    1.9171    1.0000 </r>
       <r>    1.9223    1.0000 </r>
       <r>    1.9295    1.0000 </r>
       <r>    1.9416    1.0000 </r>
       <r>    1.9945    1.0000 </r>
       <r>    1.9952    1.0000 </r>
       <r>    2.0027    1.0000 </r>
       <r>    2.0047    1.0000 </r>
       <r>    2.0111    1.0000 </r>
       <r>    2.0173    1.0000 </r>
       <r>    2.1224    1.0000 </r>
       <r>    2.1318    1.0000 </r>
       <r>    2.1537    1.0000 </r>
       <r>    2.1571    1.0000 </r>
       <r>    2.1639    1.0000 </r>
       <r>    2.1693    1.0000 </r>
       <r>    2.1744    1.0000 </r>
       <r>    2.1823    1.0000 </r>
       <r>    2.1837    1.0000 </r>
       <r>    2.1913    1.0000 </r>
       <r>    2.2448    1.0000 </r>
       <r>    2.2561    1.0000 </r>
       <r>    2.2707    1.0000 </r>
       <r>    2.2747    1.0000 </r>
       <r>    2.2818    1.0000 </r>
       <r>    2.2917    1.0000 </r>
       <r>    2.2957    1.0000 </r>
       <r>    2.3005    1.0000 </r>
       <r>    2.6175    1.0000 </r>
       <r>    2.6244    1.0000 </r>
       <r>    2.6295    1.0000 </r>
       <r>    2.6340    1.0000 </r>
       <r>    2.6431    1.0000 </r>
       <r>    2.6489    1.0000 </r>
       <r>    2.6923    1.0000 </r>
       <r>    2.6955    1.0000 </r>
       <r>    2.7285    1.0000 </r>
       <r>    2.7333    1.0000 </r>
       <r>    6.5223    0.0000 </r>
       <r>    6.5570    0.0000 </r>
       <r>    6.5640    0.0000 </r>
       <r>    6.6064    0.0000 </r>
       <r>    6.6163    0.0000 </r>
       <r>    6.6283    0.0000 </r>
       <r>    6.6473    0.0000 </r>
       <r>    6.6556    0.0000 </r>
       <r>    6.6815    0.0000 </r>
       <r>    6.7098    0.0000 </r>
       <r>    6.7177    0.0000 </r>
       <r>    6.7492    0.0000 </r>
       <r>    6.7544    0.0000 </r>
       <r>    6.7849    0.0000 </r>
       <r>    6.7996    0.0000 </r>
       <r>    6.8232    0.0000 </r>
       <r>    6.8582    0.0000 </r>
       <r>    6.9547    0.0000 </r>
       <r>    7.2409    0.0000 </r>
       <r>    7.2529    0.0000 </r>
       <r>    7.2539    0.0000 </r>
       <r>    7.3218    0.0000 </r>
       <r>    7.3809    0.0000 </r>
       <r>    7.4152    0.0000 </r>
       <r>    7.6066    0.0000 </r>
       <r>    7.6490    0.0000 </r>
       <r>    7.6739    0.0000 </r>
       <r>    7.6994    0.0000 </r>
       <r>    7.7479    0.0000 </r>
       <r>    7.7773    0.0000 </r>
       <r>    7.8402    0.0000 </r>
       <r>    7.8896    0.0000 </r>
       <r>    7.9484    0.0000 </r>
       <r>    8.0196    0.0000 </r>
       <r>    8.0324    0.0000 </r>
       <r>    8.0786    0.0000 </r>
       <r>    8.1598    0.0000 </r>
       <r>    8.2047    0.0000 </r>
       <r>    8.2339    0.0000 </r>
       <r>    8.2686    0.0000 </r>
       <r>    8.2995    0.0000 </r>
       <r>    8.3113    0.0000 </r>
       <r>    8.3675    0.0000 </r>
       <r>    8.3804    0.0000 </r>
       <r>    8.3942    0.0000 </r>
       <r>    8.4385    0.0000 </r>
       <r>    8.4707    0.0000 </r>
       <r>    8.5484    0.0000 </r>
       <r>   10.4507    0.0000 </r>
       <r>   10.4748    0.0000 </r>
       <r>   10.4907    0.0000 </r>
       <r>   10.5293    0.0000 </r>
       <r>   10.5751    0.0000 </r>
       <r>   10.6790    0.0000 </r>
       <r>   10.7081    0.0000 </r>
       <r>   10.8142    0.0000 </r>
      </set>
     </set>
    </set>
   </array>
  </eigenvalues>
  <separator name="orbital magnetization" >
   <v name="MAGDIPOLOUT">      0.00000000      0.00000000      0.00000000</v>
  </separator>
 </calculation>
 <structure name="finalpos" >
  <crystal>
   <varray name="basis" >
    <v>       5.15301584      -2.97338750       9.21426465 </v>
    <v>       0.00264242       5.94834138       9.21330209 </v>
    <v>      -5.15002415      -2.97471143       9.21217724 </v>
   </varray>
   <i name="volume">    846.95310641 </i>
   <varray name="rec_basis" >
    <v>       0.09705861      -0.05605159       0.03616049 </v>
    <v>      -0.00002173       0.11207726       0.03617881 </v>
    <v>      -0.09705887      -0.05602665       0.03620006 </v>
   </varray>
  </crystal>
  <varray name="positions" >
   <v>       0.13832053       0.13935613       0.13983145 </v>
   <v>       0.39149351       0.39000923       0.39081457 </v>
   <v>       0.14028798       0.14028489       0.64091717 </v>
   <v>       0.39172896       0.39094488       0.89061440 </v>
   <v>       0.14011037       0.63907556       0.13990128 </v>
   <v>       0.38999482       0.89020035       0.39048995 </v>
   <v>       0.14028920       0.63858793       0.63938716 </v>
   <v>       0.39068949       0.89124297       0.89012804 </v>
   <v>       0.63966024       0.14087319       0.13848502 </v>
   <v>       0.89087663       0.39194758       0.39129230 </v>
   <v>       0.64048481       0.13980499       0.63891053 </v>
   <v>       0.89105535       0.39183486       0.88999144 </v>
   <v>       0.63981148       0.64046652       0.14011071 </v>
   <v>       0.88946911       0.89023413       0.39157257 </v>
   <v>       0.64091821       0.64011134       0.64145870 </v>
   <v>       0.89101374       0.89084047       0.89132020 </v>
   <v>       0.99964283       0.00149792       0.99678106 </v>
   <v>       0.99940281       0.00008164       0.49763340 </v>
   <v>       0.25173777       0.24893135       0.74960418 </v>
   <v>       0.99753255       0.49796740       0.00089879 </v>
   <v>       0.00058252       0.49716118       0.50089508 </v>
   <v>       0.49988763       0.99742862       0.00093150 </v>
   <v>       0.49954770       0.50006957       0.99787431 </v>
   <v>       0.75097643       0.74947494       0.24989158 </v>
   <v>       0.49989383       0.50129670       0.49658341 </v>
   <v>       0.74943239       0.75098627       0.74804342 </v>
   <v>       0.05729516       0.17995178       0.36081293 </v>
   <v>       0.36079367       0.05714327       0.18019530 </v>
   <v>       0.17942803       0.36058765       0.05744781 </v>
   <v>       0.43045917       0.30672257       0.11028267 </v>
   <v>       0.10953839       0.43089288       0.30663113 </v>
   <v>       0.30718595       0.11059018       0.43026013 </v>
   <v>       0.05629261       0.18036191       0.86058829 </v>
   <v>       0.35958895       0.05732068       0.68086618 </v>
   <v>       0.18046049       0.36089923       0.55644762 </v>
   <v>       0.43066846       0.30602628       0.61131758 </v>
   <v>       0.11095086       0.42959825       0.80625086 </v>
   <v>       0.30600558       0.11103588       0.93079961 </v>
   <v>       0.05706855       0.67957133       0.36101244 </v>
   <v>       0.36077234       0.55724793       0.17957801 </v>
   <v>       0.17919232       0.86111777       0.05731627 </v>
   <v>       0.42976577       0.80766425       0.11002233 </v>
   <v>       0.11039531       0.93003339       0.30741771 </v>
   <v>       0.30725826       0.60979277       0.43025839 </v>
   <v>       0.05750962       0.67858506       0.86091561 </v>
   <v>       0.36100916       0.55729160       0.67915710 </v>
   <v>       0.17925613       0.86094777       0.55727924 </v>
   <v>       0.42982198       0.80745390       0.61003268 </v>
   <v>       0.10993030       0.92957894       0.80759464 </v>
   <v>       0.30689415       0.60990689       0.93034030 </v>
   <v>       0.55772684       0.17966832       0.36070023 </v>
   <v>       0.86117287       0.05694059       0.17942648 </v>
   <v>       0.67968094       0.36095453       0.05711014 </v>
   <v>       0.92975245       0.30741581       0.10986758 </v>
   <v>       0.61035189       0.43015490       0.30734918 </v>
   <v>       0.80758724       0.10995553       0.43016298 </v>
   <v>       0.55729654       0.17894064       0.86102594 </v>
   <v>       0.86077556       0.05711775       0.67927021 </v>
   <v>       0.67933563       0.36107757       0.55729189 </v>
   <v>       0.93012290       0.30717792       0.60998194 </v>
   <v>       0.61027973       0.42983895       0.80729850 </v>
   <v>       0.80717275       0.10949901       0.93030141 </v>
   <v>       0.55645296       0.68063765       0.36028619 </v>
   <v>       0.86031156       0.55729132       0.17926081 </v>
   <v>       0.67985893       0.86069269       0.05668679 </v>
   <v>       0.93021375       0.80576377       0.11121314 </v>
   <v>       0.61088841       0.93052554       0.30642067 </v>
   <v>       0.80586884       0.61099910       0.42998819 </v>
   <v>       0.55648942       0.67961277       0.86111587 </v>
   <v>       0.86088009       0.55667355       0.67933907 </v>
   <v>       0.67975313       0.85987836       0.55754029 </v>
   <v>       0.93021838       0.80630343       0.61106404 </v>
   <v>       0.61045283       0.93016503       0.80662208 </v>
   <v>       0.80679386       0.61108866       0.92890633 </v>
   <v>       0.24867218       0.24990397       0.24765874 </v>
   <v>       0.24808932       0.74808272       0.24853048 </v>
   <v>       0.24754447       0.74750419       0.74932609 </v>
   <v>       0.74732935       0.24776551       0.24919719 </v>
   <v>       0.49681628       0.99770749       0.50017493 </v>
   <v>       0.74838404       0.24831793       0.74835001 </v>
  </varray>
 </structure>
</modeling>
