 vasp.5.4.4.18Apr17-6-g9f103f2a35 (build Mar 05 2020 17:21:05) complex          
  
 executed on Linux justhpc1_p2018 date 2024.04.10  19:58:29
 running on   72 total cores
 distrk:  each k-point on   72 cores,    1 groups
 distr:  one band on NCORES_PER_BAND=   1 cores,   72 groups


--------------------------------------------------------------------------------------------------------


 INCAR:
 POTCAR:    PAW_PBE Li 17Jan2003                  
 POTCAR:    PAW_PBE Nb_sv 25May2007               
 POTCAR:    PAW_PBE O 08Apr2002                   
 POTCAR:    PAW_PBE Ta 17Jan2003                  

 ----------------------------------------------------------------------------- 
|                                                                             |
|           W    W    AA    RRRRR   N    N  II  N    N   GGGG   !!!           |
|           W    W   A  A   R    R  NN   N  II  NN   N  G    G  !!!           |
|           W    W  A    A  R    R  N N  N  II  N N  N  G       !!!           |
|           W WW W  AAAAAA  RRRRR   N  N N  II  N  N N  G  GGG   !            |
|           WW  WW  A    A  R   R   N   NN  II  N   NN  G    G                |
|           W    W  A    A  R    R  N    N  II  N    N   GGGG   !!!           |
|                                                                             |
|      For optimal performance we recommend to set                            |
|        NCORE= 4 - approx SQRT( number of cores)                             |
|      NCORE specifies how many cores store one orbital (NPAR=cpu/NCORE).     |
|      This setting can  greatly improve the performance of VASP for DFT.     |
|      The default,   NCORE=1            might be grossly inefficient         |
|      on modern multi-core architectures or massively parallel machines.     |
|      Do your own testing !!!!                                               |
|      Unfortunately you need to use the default for GW and RPA calculations. |
|      (for HF NCORE is supported but not extensively tested yet)             |
|                                                                             |
 ----------------------------------------------------------------------------- 

 POTCAR:    PAW_PBE Li 17Jan2003                  
  local pseudopotential read in
  partial core-charges read in
  partial kinetic energy density read in
  atomic valenz-charges read in
  non local Contribution for L=           0  read in
    real space projection operators read in
  non local Contribution for L=           0  read in
    real space projection operators read in
  non local Contribution for L=           1  read in
    real space projection operators read in
    PAW grid and wavefunctions read in
 
   number of l-projection  operators is LMAX  =           3
   number of lm-projection operators is LMMAX =           5
 
 POTCAR:    PAW_PBE Nb_sv 25May2007               
  local pseudopotential read in
  partial core-charges read in
  partial kinetic energy density read in
  atomic valenz-charges read in
  non local Contribution for L=           0  read in
    real space projection operators read in
  non local Contribution for L=           0  read in
    real space projection operators read in
  non local Contribution for L=           1  read in
    real space projection operators read in
  non local Contribution for L=           1  read in
    real space projection operators read in
  non local Contribution for L=           2  read in
    real space projection operators read in
  non local Contribution for L=           2  read in
    real space projection operators read in
    PAW grid and wavefunctions read in
 
   number of l-projection  operators is LMAX  =           6
   number of lm-projection operators is LMMAX =          18
 
 POTCAR:    PAW_PBE O 08Apr2002                   
  local pseudopotential read in
  partial core-charges read in
  partial kinetic energy density read in
  kinetic energy density of atom read in
  atomic valenz-charges read in
  non local Contribution for L=           0  read in
    real space projection operators read in
  non local Contribution for L=           0  read in
    real space projection operators read in
  non local Contribution for L=           1  read in
    real space projection operators read in
  non local Contribution for L=           1  read in
    real space projection operators read in
    PAW grid and wavefunctions read in
 
   number of l-projection  operators is LMAX  =           4
   number of lm-projection operators is LMMAX =           8
 
 POTCAR:    PAW_PBE Ta 17Jan2003                  
  local pseudopotential read in
  partial core-charges read in
  partial kinetic energy density read in
  atomic valenz-charges read in
  non local Contribution for L=           2  read in
    real space projection operators read in
  non local Contribution for L=           2  read in
    real space projection operators read in
  non local Contribution for L=           0  read in
    real space projection operators read in
  non local Contribution for L=           0  read in
    real space projection operators read in
  non local Contribution for L=           1  read in
    real space projection operators read in
  non local Contribution for L=           1  read in
    real space projection operators read in
    PAW grid and wavefunctions read in
 
   number of l-projection  operators is LMAX  =           6
   number of lm-projection operators is LMMAX =          18
 
 Optimization of the real space projectors (new method)

 maximal supplied QI-value         = 18.33
 optimisation between [QCUT,QGAM] = [ 11.00, 22.18] = [ 33.87,137.76] Ry 
 Optimized for a Real-space Cutoff    1.27 Angstroem

   l    n(q)    QCUT    max X(q) W(low)/X(q) W(high)/X(q)  e(spline) 
   0      8    10.998    33.825    0.29E-04    0.16E-03    0.54E-07
   0      8    10.998     8.944    0.19E-04    0.12E-03    0.42E-07
   1      8    10.998     4.214    0.16E-03    0.32E-04    0.49E-07
 Optimization of the real space projectors (new method)

 maximal supplied QI-value         = 15.68
 optimisation between [QCUT,QGAM] = [ 11.14, 22.27] = [ 34.73,138.91] Ry 
 Optimized for a Real-space Cutoff    1.75 Angstroem

   l    n(q)    QCUT    max X(q) W(low)/X(q) W(high)/X(q)  e(spline) 
   0     12    11.136    10.201    0.25E-04    0.67E-06    0.52E-07
   0     12    11.136     8.174    0.39E-04    0.20E-05    0.97E-07
   1     11    11.136     3.488    0.15E-05    0.92E-05    0.13E-06
   1     11    11.136     4.917    0.87E-05    0.65E-04    0.82E-06
   2     11    11.136   153.744    0.20E-03    0.19E-03    0.13E-05
   2     11    11.136   126.342    0.20E-03    0.19E-03    0.13E-05
 Optimization of the real space projectors (new method)

 maximal supplied QI-value         = 24.76
 optimisation between [QCUT,QGAM] = [ 11.14, 22.28] = [ 34.75,139.00] Ry 
 Optimized for a Real-space Cutoff    1.19 Angstroem

   l    n(q)    QCUT    max X(q) W(low)/X(q) W(high)/X(q)  e(spline) 
   0      8    11.140    20.381    0.23E-03    0.52E-03    0.22E-06
   0      8    11.140    15.268    0.24E-03    0.55E-03    0.24E-06
   1      7    11.140     5.964    0.11E-03    0.44E-03    0.26E-06
   1      7    11.140     5.382    0.84E-04    0.37E-03    0.23E-06
 Optimization of the real space projectors (new method)

 maximal supplied QI-value         = 12.85
 optimisation between [QCUT,QGAM] = [ 11.05, 22.23] = [ 34.20,138.39] Ry 
 Optimized for a Real-space Cutoff    1.65 Angstroem

   l    n(q)    QCUT    max X(q) W(low)/X(q) W(high)/X(q)  e(spline) 
   2     10    11.051    62.315    0.21E-03    0.15E-03    0.40E-06
   2     10    11.051    52.185    0.21E-03    0.15E-03    0.40E-06
   0     11    11.051   103.837    0.25E-04    0.82E-06    0.35E-06
   0     11    11.051    59.728    0.19E-04    0.76E-06    0.31E-06
   1     11    11.051    13.958    0.72E-04    0.92E-04    0.65E-06
   1     11    11.051     8.441    0.56E-04    0.61E-04    0.46E-06

 ----------------------------------------------------------------------------- 
|                                                                             |
|  ADVICE TO THIS USER RUNNING 'VASP/VAMP'   (HEAR YOUR MASTER'S VOICE ...):  |
|                                                                             |
|      You enforced a specific xc-type in the INCAR file,                     |
|      a different type was found on the POTCAR file                          |
|          I HOPE YOU KNOW, WHAT YOU ARE  DOING                               |
|                                                                             |
 ----------------------------------------------------------------------------- 

  PAW_PBE Li 17Jan2003                  :
 energy of atom  1       EATOM=   -5.3001
 kinetic energy error for atom=    0.0000 (will be added to EATOM!!)
  PAW_PBE Nb_sv 25May2007               :
 energy of atom  2       EATOM=-1555.1913
 kinetic energy error for atom=    0.0086 (will be added to EATOM!!)
  PAW_PBE O 08Apr2002                   :
 energy of atom  3       EATOM= -432.3788
 kinetic energy error for atom=    0.0273 (will be added to EATOM!!)
  PAW_PBE Ta 17Jan2003                  :
 energy of atom  4       EATOM= -130.6506
 kinetic energy error for atom=    0.0015 (will be added to EATOM!!)
 
 
 POSCAR: Li Nb  O Ta + 5 %                       
  positions in direct lattice
  velocities in cartesian coordinates
 exchange correlation table for  LEXCH =       14
   RHO(1)=    0.500       N(1)  =     2000
   RHO(2)=  100.500       N(2)  =     4000
 


--------------------------------------------------------------------------------------------------------


 ion  position               nearest neighbor table
   1  0.138  0.139  0.140-  38 2.06  43 2.06  54 2.06  27 2.32  29 2.32  28 2.33  75 3.07  18 3.08
                            20 3.09  22 3.12  78 3.42  76 3.42
   2  0.391  0.390  0.391-  51 2.07  35 2.07  40 2.08  55 2.28  44 2.29  36 2.29  25 3.04  78 3.07
                            76 3.09  19 3.09  79 3.44
   3  0.140  0.140  0.641-  32 2.08  60 2.08  49 2.08  33 2.29  34 2.29  35 2.30  17 3.07  19 3.07
                            21 3.08  79 3.08  80 3.43  75 3.44  77 3.44
   4  0.392  0.391  0.891-  57 2.08  46 2.08  29 2.09  61 2.27  50 2.28  30 2.28  23 3.03  80 3.08
                            77 3.08  75 3.08
   5  0.140  0.639  0.140-  31 2.06  50 2.06  66 2.07  40 2.31  39 2.31  41 2.31  76 3.04  23 3.10
                            21 3.11  17 3.12  75 3.40  77 3.42
   6  0.390  0.890  0.390-  63 2.07  28 2.07  47 2.07  48 2.29  32 2.30  67 2.30  79 3.03  77 3.10
                            75 3.10  24 3.11
   7  0.140  0.639  0.639-  44 2.06  37 2.06  72 2.07  46 2.31  45 2.31  47 2.32  77 3.05  25 3.10
                            18 3.12  20 3.12  76 3.42
   8  0.391  0.891  0.890-  34 2.07  69 2.08  41 2.08  73 2.29  42 2.29  38 2.29  22 3.05  19 3.08
                            76 3.09  26 3.09  79 3.42
   9  0.640  0.141  0.139-  30 2.06  62 2.06  67 2.07  53 2.30  52 2.31  51 2.31  78 3.04  23 3.10
                            17 3.10  79 3.12  80 3.41  75 3.42
  10  0.891  0.392  0.391-  59 2.08  64 2.09  27 2.09  68 2.27  31 2.27  60 2.27  21 3.03  24 3.08
                            80 3.08  75 3.09
  11  0.640  0.140  0.639-  56 2.06  36 2.06  73 2.07  58 2.30  59 2.31  57 2.31  80 3.04  18 3.10
                            25 3.12  22 3.12  78 3.41
  12  0.891  0.392  0.890-  70 2.07  33 2.08  53 2.09  74 2.28  37 2.28  54 2.28  20 3.02  26 3.10
                            78 3.10  19 3.11
  13  0.640  0.641  0.140-  42 2.07  55 2.07  74 2.08  64 2.29  65 2.30  63 2.30  25 3.07  22 3.08
                            24 3.08  20 3.09  76 3.43  78 3.44
  14  0.890  0.890  0.392-  71 2.07  39 2.08  52 2.08  56 2.29  72 2.29  43 2.30  18 3.04  26 3.07
                            78 3.09  76 3.10  79 3.44
  15  0.641  0.640  0.641-  61 2.07  68 2.08  48 2.08  70 2.28  71 2.28  69 2.28  26 3.04  23 3.08
                            79 3.09  21 3.10  80 3.43  77 3.45
  16  0.891  0.891  0.891-  65 2.08  58 2.09  45 2.09  62 2.27  49 2.27  66 2.28  17 3.03  77 3.08
                            80 3.09  24 3.09
  17  1.000  0.002  0.997-  33 1.91  52 1.93  41 1.93  49 2.11  62 2.11  66 2.15  16 3.03   3 3.07
                             9 3.10   5 3.12
  18  0.999  0.000  0.498-  27 1.92  47 1.93  58 1.93  43 2.11  56 2.11  72 2.13  14 3.04   1 3.08
                            11 3.10   7 3.12
  19  0.252  0.249  0.750-  36 1.91  38 1.91  37 1.92  34 2.12  35 2.14  33 2.15   3 3.07   8 3.08
                             2 3.09  12 3.11
  20  0.997  0.498  0.001-  64 1.91  29 1.93  45 1.94  54 2.10  74 2.12  37 2.14  12 3.02  13 3.09
                             1 3.09   7 3.12
  21  0.001  0.497  0.501-  35 1.91  70 1.92  39 1.94  60 2.11  31 2.13  68 2.15  10 3.03   3 3.08
                            15 3.10   5 3.11
  22  0.500  0.997  0.001-  65 1.91  28 1.93  57 1.93  42 2.11  73 2.13  38 2.14   8 3.05  13 3.08
                             1 3.12  11 3.12
  23  0.500  0.500  0.998-  69 1.91  53 1.93  40 1.93  61 2.11  50 2.12  30 2.13   4 3.03  15 3.08
                             9 3.10   5 3.10
  24  0.751  0.749  0.250-  68 1.91  66 1.91  67 1.92  64 2.14  65 2.15  63 2.15  13 3.08  10 3.08
                            16 3.09   6 3.11
  25  0.500  0.501  0.497-  63 1.91  59 1.93  46 1.93  55 2.11  44 2.11  36 2.15   2 3.04  13 3.07
                             7 3.10  11 3.12
  26  0.749  0.751  0.748-  72 1.92  73 1.92  74 1.93  71 2.11  70 2.14  69 2.14  15 3.04  14 3.07
                             8 3.09  12 3.10
  27  0.056  0.181  0.361-  18 1.92  10 2.09  75 2.12   1 2.32
  28  0.361  0.056  0.181-  22 1.93   6 2.07  75 2.12   1 2.33
  29  0.181  0.360  0.056-  20 1.93   4 2.09  75 2.11   1 2.32
  30  0.432  0.306  0.110-  75 1.93   9 2.06  23 2.13   4 2.28
  31  0.109  0.432  0.306-  75 1.94   5 2.06  21 2.13  10 2.27
  32  0.306  0.110  0.431-  75 1.95   3 2.08  79 2.10   6 2.30
  33  0.055  0.182  0.860-  17 1.91  12 2.08  19 2.15   3 2.29
  34  0.359  0.056  0.682-  79 1.94   8 2.07  19 2.12   3 2.29
  35  0.182  0.361  0.556-  21 1.91   2 2.07  19 2.14   3 2.30
  36  0.432  0.305  0.611-  19 1.91  11 2.06  25 2.15   2 2.29
  37  0.111  0.431  0.805-  19 1.92   7 2.06  20 2.14  12 2.28
  38  0.305  0.111  0.932-  19 1.91   1 2.06  22 2.14   8 2.29
  39  0.056  0.681  0.361-  21 1.94  14 2.08  76 2.11   5 2.31
  40  0.361  0.556  0.181-  23 1.93   2 2.08  76 2.11   5 2.31
  41  0.180  0.861  0.056-  17 1.93   8 2.08  76 2.11   5 2.31
  42  0.431  0.807  0.110-  76 1.95  13 2.07  22 2.11   8 2.29
  43  0.110  0.931  0.306-  76 1.94   1 2.06  18 2.11  14 2.30
  44  0.306  0.610  0.431-  76 1.94   7 2.06  25 2.11   2 2.29
  45  0.056  0.680  0.861-  20 1.94  16 2.09  77 2.10   7 2.31
  46  0.361  0.556  0.680-  25 1.93   4 2.08  77 2.11   7 2.31
  47  0.181  0.861  0.556-  18 1.93   6 2.07  77 2.11   7 2.32
  48  0.431  0.806  0.610-  77 1.95  15 2.08  79 2.09   6 2.29
  49  0.110  0.931  0.807-  77 1.94   3 2.08  17 2.11  16 2.27
  50  0.306  0.610  0.932-  77 1.94   5 2.06  23 2.12   4 2.28
  51  0.557  0.181  0.360-  79 1.96   2 2.07  78 2.09   9 2.31
  52  0.861  0.056  0.181-  17 1.93  14 2.08  78 2.11   9 2.31
  53  0.681  0.361  0.056-  23 1.93  12 2.09  78 2.11   9 2.30
  54  0.931  0.306  0.110-  78 1.95   1 2.06  20 2.10  12 2.28
  55  0.610  0.431  0.306-  78 1.94  13 2.07  25 2.11   2 2.28
  56  0.807  0.110  0.431-  78 1.94  11 2.06  18 2.11  14 2.29
  57  0.556  0.180  0.861-  22 1.93   4 2.08  80 2.11  11 2.31
  58  0.861  0.056  0.681-  18 1.93  16 2.09  80 2.11  11 2.30
  59  0.681  0.361  0.556-  25 1.93  10 2.08  80 2.11  11 2.31
  60  0.931  0.306  0.610-  80 1.94   3 2.08  21 2.11  10 2.27
  61  0.610  0.431  0.806-  80 1.94  15 2.07  23 2.11   4 2.27
  62  0.806  0.109  0.931-  80 1.94   9 2.06  17 2.11  16 2.27
  63  0.556  0.682  0.360-  25 1.91   6 2.07  24 2.15  13 2.30
  64  0.860  0.556  0.180-  20 1.91  10 2.09  24 2.14  13 2.29
  65  0.681  0.860  0.056-  22 1.91  16 2.08  24 2.15  13 2.30
  66  0.931  0.805  0.111-  24 1.91   5 2.07  17 2.15  16 2.28
  67  0.611  0.932  0.305-  24 1.92   9 2.07  79 2.12   6 2.30
  68  0.805  0.611  0.431-  24 1.91  15 2.08  21 2.15  10 2.27
  69  0.556  0.681  0.861-  23 1.91   8 2.08  26 2.14  15 2.28
  70  0.861  0.556  0.681-  21 1.92  12 2.07  26 2.14  15 2.28
  71  0.681  0.860  0.557-  79 1.94  14 2.07  26 2.11  15 2.28
  72  0.931  0.805  0.611-  26 1.92   7 2.07  18 2.13  14 2.29
  73  0.610  0.931  0.806-  26 1.92  11 2.07  22 2.13   8 2.29
  74  0.806  0.611  0.930-  26 1.93  13 2.08  20 2.12  12 2.28
  75  0.249  0.250  0.248-  30 1.93  31 1.94  32 1.95  29 2.11  28 2.12  27 2.12   1 3.07   4 3.08
                            10 3.09   6 3.10   5 3.40   9 3.42   3 3.44
  76  0.248  0.748  0.248-  43 1.94  44 1.94  42 1.95  40 2.11  39 2.11  41 2.11   5 3.04   2 3.09
                             8 3.09  14 3.10   7 3.42   1 3.42  13 3.43
  77  0.248  0.747  0.749-  50 1.94  49 1.94  48 1.95  45 2.10  46 2.11  47 2.11   7 3.05  16 3.08
                             4 3.08   6 3.10   5 3.42   3 3.44  15 3.45
  78  0.747  0.248  0.249-  56 1.94  55 1.94  54 1.95  51 2.09  53 2.11  52 2.11   9 3.04   2 3.07
                            14 3.09  12 3.10  11 3.41   1 3.42  13 3.44
  79  0.497  0.998  0.500-  34 1.94  71 1.94  51 1.96  48 2.09  32 2.10  67 2.12   6 3.03   3 3.08
                            15 3.09   9 3.12   8 3.42   2 3.44  14 3.44
  80  0.748  0.248  0.748-  61 1.94  60 1.94  62 1.94  59 2.11  58 2.11  57 2.11  11 3.04   4 3.08
                            10 3.08  16 3.09   9 3.41   3 3.43  15 3.43
 
  Warning from LATTYP: Got some problem with cell dimensions!
  Tried to take original basis but could not verify dimensions!
  LATTYP: Found a triclinic cell.
 ALAT       =    18.4721836728
 B/A-ratio  =     0.5647103122
 C/A-ratio  =     0.6016367188
 COS(alpha) =     0.0001983670
 COS(beta)  =     0.3367853441
 COS(gamma) =     0.8471333656
  
  Lattice vectors:
  
 A1 = ( -10.4329873573,  12.0450106893,  -9.3430220988)
 A2 = (  -5.2152410964,   9.0341599388,  -0.0008739308)
 A3 = (   5.2151052893,   3.0122186908,  -9.3402395601)


Analysis of symmetry for initial positions (statically):
=====================================================================
 Subroutine PRICEL returns:
 Original cell was already a primitive cell.
 

 Routine SETGRP: Setting up the symmetry group for a 
 triclinic supercell.


 Subroutine GETGRP returns: Found  1 space group operations
 (whereof  1 operations were pure point group operations)
 out of a pool of  2 trial point group operations.


The static configuration has the point symmetry C_1 .


Analysis of symmetry for dynamics (positions and initial velocities):
=====================================================================
 Subroutine PRICEL returns:
 Original cell was already a primitive cell.
 

 Routine SETGRP: Setting up the symmetry group for a 
 triclinic supercell.


 Subroutine GETGRP returns: Found  1 space group operations
 (whereof  1 operations were pure point group operations)
 out of a pool of  2 trial point group operations.


The dynamic configuration has the point symmetry C_1 .


 Subroutine INISYM returns: Found  1 space group operations
 (whereof  1 operations are pure point group operations),
 and found     1 'primitive' translations

 
 
 KPOINTS: Autom                                   

Automatic generation of k-mesh.
Space group operators:
 irot       det(A)        alpha          n_x          n_y          n_z        tau_x        tau_y        tau_z
    1     1.000000     0.000000     1.000000     0.000000     0.000000     0.000000     0.000000     0.000000
 
 Subroutine IBZKPT returns following result:
 ===========================================
 
 Found     36 irreducible k-points:
 
 Following reciprocal coordinates:
            Coordinates               Weight
  0.000000  0.000000  0.000000      1.000000
  0.250000  0.000000  0.000000      2.000000
  0.500000  0.000000  0.000000      1.000000
  0.000000  0.250000  0.000000      2.000000
  0.250000  0.250000  0.000000      2.000000
  0.500000  0.250000  0.000000      2.000000
 -0.250000  0.250000  0.000000      2.000000
  0.000000  0.500000  0.000000      1.000000
  0.250000  0.500000  0.000000      2.000000
  0.500000  0.500000  0.000000      1.000000
  0.000000  0.000000  0.250000      2.000000
  0.250000  0.000000  0.250000      2.000000
  0.500000 -0.000000  0.250000      2.000000
 -0.250000  0.000000  0.250000      2.000000
 -0.000000  0.250000  0.250000      2.000000
  0.250000  0.250000  0.250000      2.000000
  0.500000  0.250000  0.250000      2.000000
 -0.250000  0.250000  0.250000      2.000000
 -0.000000  0.500000  0.250000      2.000000
  0.250000  0.500000  0.250000      2.000000
  0.500000  0.500000  0.250000      2.000000
 -0.250000  0.500000  0.250000      2.000000
  0.000000 -0.250000  0.250000      2.000000
  0.250000 -0.250000  0.250000      2.000000
  0.500000 -0.250000  0.250000      2.000000
 -0.250000 -0.250000  0.250000      2.000000
  0.000000  0.000000  0.500000      1.000000
  0.250000  0.000000  0.500000      2.000000
  0.500000  0.000000  0.500000      1.000000
 -0.000000  0.250000  0.500000      2.000000
  0.250000  0.250000  0.500000      2.000000
  0.500000  0.250000  0.500000      2.000000
 -0.250000  0.250000  0.500000      2.000000
 -0.000000  0.500000  0.500000      1.000000
  0.250000  0.500000  0.500000      2.000000
  0.500000  0.500000  0.500000      1.000000
 
 Following cartesian coordinates:
            Coordinates               Weight
  0.000000  0.000000  0.000000      1.000000
  0.024356 -0.014065  0.009063      2.000000
  0.048712 -0.028131  0.018126      1.000000
 -0.000005  0.028124  0.009067      2.000000
  0.024351  0.014059  0.018130      2.000000
  0.048706 -0.000007  0.027193      2.000000
 -0.024361  0.042190  0.000004      2.000000
 -0.000011  0.056249  0.018134      1.000000
  0.024345  0.042183  0.027197      2.000000
  0.048701  0.028118  0.036260      1.000000
 -0.024355 -0.014059  0.009072      2.000000
  0.000000 -0.028125  0.018135      2.000000
  0.024356 -0.042190  0.027198      2.000000
 -0.048711  0.000006  0.000009      2.000000
 -0.024361  0.014065  0.018139      2.000000
 -0.000005 -0.000000  0.027202      2.000000
  0.024351 -0.014066  0.036265      2.000000
 -0.048717  0.028131  0.009076      2.000000
 -0.024366  0.042189  0.027206      2.000000
 -0.000010  0.028124  0.036269      2.000000
  0.024346  0.014059  0.045332      2.000000
 -0.048722  0.056255  0.018143      2.000000
 -0.024350 -0.042183  0.000005      2.000000
  0.000006 -0.056249  0.009068      2.000000
  0.024362 -0.070314  0.018131      2.000000
 -0.048706 -0.028118 -0.009058      2.000000
 -0.048711 -0.028118  0.018144      1.000000
 -0.024355 -0.042184  0.027207      2.000000
  0.000001 -0.056249  0.036270      1.000000
 -0.048716  0.000006  0.027211      2.000000
 -0.024360 -0.014059  0.036274      2.000000
 -0.000005 -0.028125  0.045337      2.000000
 -0.073072  0.014072  0.018148      2.000000
 -0.048722  0.028130  0.036278      1.000000
 -0.024366  0.014065  0.045341      2.000000
 -0.000010 -0.000000  0.054404      1.000000
 
 TETIRR: Found    192 inequivalent tetrahedra from      384


--------------------------------------------------------------------------------------------------------




 Dimension of arrays:
   k-points           NKPTS =     36   k-points in BZ     NKDIM =     36   number of bands    NBANDS=    288
   number of dos      NEDOS =    301   number of ions     NIONS =     80
   non local maximal  LDIM  =      6   non local SUM 2l+1 LMDIM =     18
   total plane-waves  NPLWV = 512000
   max r-space proj   IRMAX =  13185   max aug-charges    IRDMAX=  39778
   dimension x,y,z NGX =    80 NGY =   80 NGZ =   80
   dimension x,y,z NGXF=   160 NGYF=  160 NGZF=  160
   support grid    NGXF=   160 NGYF=  160 NGZF=  160
   ions per type =              16  10  48   6
   NGX,Y,Z   is equivalent  to a cutoff of  11.96, 11.97, 11.97 a.u.
   NGXF,Y,Z  is equivalent  to a cutoff of  23.93, 23.93, 23.93 a.u.

 SYSTEM =  Li(NbTa)O_3                             
 POSCAR =  Li Nb  O Ta + 5 %                       

 Startparameter for this run:
   NWRITE =      0    write-flag & timer
   PREC   = accura    normal or accurate (medium, high low for compatibility)
   ISTART =      0    job   : 0-new  1-cont  2-samecut
   ICHARG =      2    charge: 1-file 2-atom 10-const
   ISPIN  =      1    spin polarized calculation?
   LNONCOLLINEAR =      F non collinear calculations
   LSORBIT =      F    spin-orbit coupling
   INIWAV =      1    electr: 0-lowe 1-rand  2-diag
   LASPH  =      F    aspherical Exc in radial PAW
   METAGGA=      F    non-selfconsistent MetaGGA calc.

 Electronic Relaxation 1
   ENCUT  =  475.0 eV  34.91 Ry    5.91 a.u.  19.75 19.75 19.75*2*pi/ulx,y,z
   ENINI  =  475.0     initial cutoff
   ENAUG  =  605.4 eV  augmentation charge cutoff
   NELM   =   1000;   NELMIN=  4; NELMDL= -5     # of ELM steps 
   EDIFF  = 0.1E-05   stopping-criterion for ELM
   LREAL  =      T    real-space projection
   NLSPLINE    = F    spline interpolate recip. space projectors
   LCOMPAT=      F    compatible to vasp.4.4
   GGA_COMPAT  = T    GGA compatible to vasp.4.4-vasp.4.6
   LMAXPAW     = -100 max onsite density
   LMAXMIX     =    2 max onsite mixed and CHGCAR
   VOSKOWN=      0    Vosko Wilk Nusair interpolation
   ROPT   =   -0.00025  -0.00025  -0.00025  -0.00025
 Ionic relaxation
   EDIFFG = -.5E-02   stopping-criterion for IOM
   NSW    =    200    number of steps for IOM
   NBLOCK =      1;   KBLOCK =    200    inner block; outer block 
   IBRION =      1    ionic relax: 0-MD 1-quasi-New 2-CG
   NFREE  =      0    steps in history (QN), initial steepest desc. (CG)
   ISIF   =      4    stress and relaxation
   IWAVPR =     11    prediction:  0-non 1-charg 2-wave 3-comb
   ISYM   =      2    0-nonsym 1-usesym 2-fastsym
   LCORR  =      T    Harris-Foulkes like correction to forces

   POTIM  = 0.1500    time-step for ionic-motion
   TEIN   =    0.0    initial temperature
   TEBEG  =    0.0;   TEEND  =   0.0 temperature during run
   SMASS  =  -3.00    Nose mass-parameter (am)
   estimated Nose-frequenzy (Omega)   =  0.10E-29 period in steps =****** mass=  -0.282E-26a.u.
   SCALEE = 1.0000    scale energy and forces
   NPACO  =    256;   APACO  = 16.0  distance and # of slots for P.C.
   PSTRESS=    0.0 pullay stress

  Mass of Ions in am
   POMASS =   7.01 92.91 16.00180.95
  Ionic Valenz
   ZVAL   =   1.00 13.00  6.00  5.00
  Atomic Wigner-Seitz radii
   RWIGS  =  -1.00 -1.00 -1.00 -1.00
  virtual crystal weights 
   VCA    =   1.00  1.00  1.00  1.00
   NELECT =     464.0000    total number of electrons
   NUPDOWN=      -1.0000    fix difference up-down

 DOS related values:
   EMIN   =  10.00;   EMAX   =-10.00  energy-range for DOS
   EFERMI =   0.00
   ISMEAR =    -5;   SIGMA  =   0.05  broadening in eV -4-tet -1-fermi 0-gaus

 Electronic relaxation 2 (details)
   IALGO  =     68    algorithm
   LDIAG  =      T    sub-space diagonalisation (order eigenvalues)
   LSUBROT=      F    optimize rotation matrix (better conditioning)
   TURBO    =      0    0=normal 1=particle mesh
   IRESTART =      0    0=no restart 2=restart with 2 vectors
   NREBOOT  =      0    no. of reboots
   NMIN     =      0    reboot dimension
   EREF     =   0.00    reference energy to select bands
   IMIX   =      4    mixing-type and parameters
     AMIX     =   0.40;   BMIX     =  1.00
     AMIX_MAG =   1.60;   BMIX_MAG =  1.00
     AMIN     =   0.10
     WC   =   100.;   INIMIX=   1;  MIXPRE=   1;  MAXMIX= -45

 Intra band minimization:
   WEIMIN = 0.0010     energy-eigenvalue tresh-hold
   EBREAK =  0.87E-09  absolut break condition
   DEPER  =   0.30     relativ break condition  

   TIME   =   0.40     timestep for ELM

  volume/ion in A,a.u.               =      11.01        74.27
  Fermi-wavevector in a.u.,A,eV,Ry     =   1.322326  2.498833 23.790398  1.748545
  Thomas-Fermi vector in A             =   2.452015
 
 Write flags
   LWAVE        =      F    write WAVECAR
   LDOWNSAMPLE  =      F    k-point downsampling of WAVECAR
   LCHARG       =      F    write CHGCAR
   LVTOT        =      F    write LOCPOT, total local potential
   LVHAR        =      F    write LOCPOT, Hartree potential only
   LELF         =      F    write electronic localiz. function (ELF)
   LORBIT       =      0    0 simple, 1 ext, 2 COOP (PROOUT), +10 PAW based schemes


 Dipole corrections
   LMONO  =      F    monopole corrections only (constant potential shift)
   LDIPOL =      F    correct potential (dipole corrections)
   IDIPOL =      0    1-x, 2-y, 3-z, 4-all directions 
   EPSILON=  1.0000000 bulk dielectric constant

 Exchange correlation treatment:
   GGA     =    PS    GGA type
   LEXCH   =    14    internal setting for exchange type
   VOSKOWN=      0    Vosko Wilk Nusair interpolation
   LHFCALC =     F    Hartree Fock is set to
   LHFONE  =     F    Hartree Fock one center treatment
   AEXX    =    0.0000 exact exchange contribution

 Linear response parameters
   LEPSILON=     F    determine dielectric tensor
   LRPA    =     F    only Hartree local field effects (RPA)
   LNABLA  =     F    use nabla operator in PAW spheres
   LVEL    =     F    velocity operator in full k-point grid
   LINTERFAST=   F  fast interpolation
   KINTER  =     0    interpolate to denser k-point grid
   CSHIFT  =0.1000    complex shift for real part using Kramers Kronig
   OMEGAMAX=  -1.0    maximum frequency
   DEG_THRESHOLD= 0.2000000E-02 threshold for treating states as degnerate
   RTIME   =   -0.100 relaxation time in fs
  (WPLASMAI=    0.000 imaginary part of plasma frequency in eV, 0.658/RTIME)
   DFIELD  = 0.0000000 0.0000000 0.0000000 field for delta impulse in time
 
 Orbital magnetization related:
   ORBITALMAG=     F  switch on orbital magnetization
   LCHIMAG   =     F  perturbation theory with respect to B field
   DQ        =  0.001000  dq finite difference perturbation B field
   LLRAUG    =     F  two centre corrections for induced B field



--------------------------------------------------------------------------------------------------------


 quasi-Newton-method for relaxation of ions
 charge density and potential will be updated during run
 non-spin polarized calculation
 RMM-DIIS sequential band-by-band and
  variant of blocked Davidson during initial phase
 perform sub-space diagonalisation
    before iterative eigenvector-optimisation
 modified Broyden-mixing scheme, WC =      100.0
 initial mixing is a Kerker type mixing with AMIX =  0.4000 and BMIX =      1.0000
 Hartree-type preconditioning will be used
 using additional bands           56
 real space projection scheme for non local part
 use partial core corrections
 calculate Harris-corrections to forces 
   (improved forces if not selfconsistent)
 use gradient corrections 
 use of overlap-Matrix (Vanderbilt PP)
 Fermi weights with tetrahedron method with Bloechl corrections


--------------------------------------------------------------------------------------------------------


  energy-cutoff  :      475.00
  volume of cell :      880.50
      direct lattice vectors                 reciprocal lattice vectors
     5.217746261 -3.010850751  9.342148168     0.095851804 -0.055354185  0.035667002
     0.002505164  6.023309188  9.341274237    -0.000021040  0.110682284  0.035683187
    -5.215105289 -3.012218691  9.340239560    -0.095850348 -0.055329049  0.035702205

  length of vectors
    11.116016853 11.114839820 11.113543974     0.116291828  0.116292124  0.116289468


 
 k-points in units of 2pi/SCALE and weight: Autom                                   
   0.00000000  0.00000000  0.00000000       0.016
   0.02435586 -0.01406545  0.00906295       0.031
   0.04871171 -0.02813090  0.01812591       0.016
  -0.00000535  0.02812427  0.00906707       0.031
   0.02435051  0.01405882  0.01813002       0.031
   0.04870637 -0.00000663  0.02719297       0.031
  -0.02436120  0.04218972  0.00000411       0.031
  -0.00001069  0.05624853  0.01813413       0.016
   0.02434516  0.04218309  0.02719708       0.031
   0.04870102  0.02811764  0.03626004       0.016
  -0.02435549 -0.01405906  0.00907190       0.031
   0.00000037 -0.02812451  0.01813485       0.031
   0.02435623 -0.04218996  0.02719780       0.031
  -0.04871134  0.00000639  0.00000895       0.031
  -0.02436083  0.01406521  0.01813896       0.031
  -0.00000498 -0.00000024  0.02720192       0.031
   0.02435088 -0.01406569  0.03626487       0.031
  -0.04871669  0.02813065  0.00907601       0.031
  -0.02436618  0.04218947  0.02720603       0.031
  -0.00001032  0.02812403  0.03626898       0.031
   0.02434553  0.01405858  0.04533193       0.031
  -0.04872204  0.05625492  0.01814308       0.031
  -0.02435014 -0.04218333  0.00000483       0.031
   0.00000572 -0.05624878  0.00906779       0.031
   0.02436157 -0.07031422  0.01813074       0.031
  -0.04870600 -0.02811788 -0.00905812       0.031
  -0.04871097 -0.02811812  0.01814380       0.016
  -0.02435512 -0.04218357  0.02720675       0.031
   0.00000074 -0.05624902  0.03626970       0.016
  -0.04871632  0.00000615  0.02721086       0.031
  -0.02436046 -0.01405930  0.03627381       0.031
  -0.00000461 -0.02812475  0.04533677       0.031
  -0.07307217  0.01407159  0.01814791       0.031
  -0.04872167  0.02813041  0.03627793       0.016
  -0.02436581  0.01406497  0.04534088       0.031
  -0.00000995 -0.00000048  0.05440383       0.016
 
 k-points in reciprocal lattice and weights: Autom                                   
   0.00000000  0.00000000  0.00000000       0.016
   0.25000000  0.00000000  0.00000000       0.031
   0.50000000  0.00000000  0.00000000       0.016
   0.00000000  0.25000000  0.00000000       0.031
   0.25000000  0.25000000  0.00000000       0.031
   0.50000000  0.25000000  0.00000000       0.031
  -0.25000000  0.25000000  0.00000000       0.031
   0.00000000  0.50000000  0.00000000       0.016
   0.25000000  0.50000000  0.00000000       0.031
   0.50000000  0.50000000  0.00000000       0.016
   0.00000000  0.00000000  0.25000000       0.031
   0.25000000  0.00000000  0.25000000       0.031
   0.50000000 -0.00000000  0.25000000       0.031
  -0.25000000  0.00000000  0.25000000       0.031
  -0.00000000  0.25000000  0.25000000       0.031
   0.25000000  0.25000000  0.25000000       0.031
   0.50000000  0.25000000  0.25000000       0.031
  -0.25000000  0.25000000  0.25000000       0.031
  -0.00000000  0.50000000  0.25000000       0.031
   0.25000000  0.50000000  0.25000000       0.031
   0.50000000  0.50000000  0.25000000       0.031
  -0.25000000  0.50000000  0.25000000       0.031
   0.00000000 -0.25000000  0.25000000       0.031
   0.25000000 -0.25000000  0.25000000       0.031
   0.50000000 -0.25000000  0.25000000       0.031
  -0.25000000 -0.25000000  0.25000000       0.031
   0.00000000  0.00000000  0.50000000       0.016
   0.25000000  0.00000000  0.50000000       0.031
   0.50000000  0.00000000  0.50000000       0.016
  -0.00000000  0.25000000  0.50000000       0.031
   0.25000000  0.25000000  0.50000000       0.031
   0.50000000  0.25000000  0.50000000       0.031
  -0.25000000  0.25000000  0.50000000       0.031
  -0.00000000  0.50000000  0.50000000       0.016
   0.25000000  0.50000000  0.50000000       0.031
   0.50000000  0.50000000  0.50000000       0.016
 
 position of ions in fractional coordinates (direct lattice) 
   0.13834752  0.13936271  0.13984335
   0.39146324  0.38999630  0.39085144
   0.14028321  0.14032414  0.64092124
   0.39173469  0.39088444  0.89059988
   0.14005761  0.63914415  0.13990376
   0.38998511  0.89022976  0.39046082
   0.14027342  0.63856692  0.63942290
   0.39066873  0.89122478  0.89017412
   0.63968950  0.14081636  0.13851063
   0.89081879  0.39199278  0.39127564
   0.64044608  0.13979598  0.63895884
   0.89104424  0.39188824  0.88993991
   0.63987068  0.64050964  0.14005521
   0.88952244  0.89019616  0.39154151
   0.64095434  0.64008558  0.64144699
   0.89103108  0.89076076  0.89134632
   0.99959237  0.00150112  0.99675172
   0.99938324  0.00003493  0.49763958
   0.25168038  0.24891337  0.74959517
   0.99749990  0.49794372  0.00086033
   0.00052440  0.49715140  0.50088067
   0.49988249  0.99738472  0.00090131
   0.49954620  0.50003968  0.99785757
   0.75097315  0.74942469  0.24984287
   0.49985523  0.50129758  0.49655071
   0.74940214  0.75095878  0.74802348
   0.05623360  0.18120304  0.36059596
   0.36055215  0.05618073  0.18135900
   0.18067803  0.36043515  0.05635112
   0.43164615  0.30579781  0.11007695
   0.10933811  0.43208088  0.30572184
   0.30616879  0.11038237  0.43144631
   0.05540035  0.18155956  0.86034038
   0.35943918  0.05639020  0.68203455
   0.18159346  0.36067916  0.55556672
   0.43176800  0.30520898  0.61104129
   0.11066152  0.43074915  0.80539644
   0.30515946  0.11079423  0.93190663
   0.05604537  0.68076856  0.36081137
   0.36061507  0.55618152  0.18081868
   0.18040413  0.86090372  0.05629587
   0.43096027  0.80670950  0.10983535
   0.11018018  0.93120277  0.30647725
   0.30631393  0.60963452  0.43142758
   0.05642617  0.67983109  0.86072292
   0.36082901  0.55621291  0.68039936
   0.18050111  0.86073339  0.55625759
   0.43105925  0.80638098  0.60992686
   0.10974163  0.93076687  0.80662904
   0.30592914  0.60973059  0.93157562
   0.55668960  0.18089021  0.36049958
   0.86099568  0.05588109  0.18065345
   0.68094161  0.36072792  0.05606070
   0.93094987  0.30643726  0.10970186
   0.61015919  0.43137998  0.30635721
   0.80662739  0.10979363  0.43135599
   0.55625493  0.18016866  0.86082204
   0.86060460  0.05601788  0.68054061
   0.68056339  0.36084158  0.55626059
   0.93128773  0.30623948  0.60979445
   0.61008613  0.43101265  0.80636497
   0.80623116  0.10929440  0.93147945
   0.55554077  0.68183433  0.36007734
   0.86007458  0.55634829  0.18046819
   0.68107200  0.86046774  0.05575260
   0.93136114  0.80492582  0.11095065
   0.61067752  0.93165297  0.30547765
   0.80503784  0.61074302  0.43111591
   0.55556968  0.68082022  0.86090541
   0.86059508  0.55581627  0.68050717
   0.68097931  0.85972506  0.55655493
   0.93138973  0.80539064  0.61084254
   0.61024363  0.93134011  0.80571432
   0.80584636  0.61083297  0.93009391
   0.24862253  0.24992729  0.24762435
   0.24806756  0.74806531  0.24849505
   0.24752603  0.74745881  0.74934160
   0.74730972  0.24776208  0.24918815
   0.49682629  0.99767190  0.50015434
   0.74834988  0.24827406  0.74832874
 
 position of ions in cartesian coordinates  (Angst):
  -0.00708639  0.00164223  3.90045874
   0.00520146 -0.00689907 10.95081607
  -2.61015804 -1.50775105  8.60771081
  -2.59962069 -1.50771848 15.62941851
   0.00277342  3.00664957  8.58559431
   0.00077925  3.01178879 15.60617659
  -2.60114691  1.49786205 13.24784694
  -2.60170882  1.51047803 20.28929975
   2.61574277 -1.49505344  8.58520086
   2.60850475 -1.49963650 15.63848139
   0.00979768 -3.01093690 13.25704342
   0.00909417 -3.00303081 20.29725482
   2.60988480  1.50955556 13.26909207
   2.60160227  1.50429872 20.28270846
   0.00072707 -0.00656308 17.95837392
   0.00294066 -0.00236415 24.97037312
   0.01745794 -6.00301594 18.66226228
   2.61928547 -4.50778266 13.98478550
  -2.59538983 -1.51643441 11.67780190
   5.20146205 -0.00664584 13.97825637
  -2.60816380  1.48415561  9.32727197
   2.60605819  4.49977005 13.99523887
  -2.59617428 -1.49793070 18.65807115
   2.61730795  1.50036719 16.34987627
   0.01980934  0.01876147 13.99038239
   0.01105030  0.01370863 21.00265617
  -1.58667927 -0.16406291  5.58606259
   0.93560409 -1.29346779  5.58706774
   0.64975806  1.45727588  5.58117747
   1.67892331  0.21071681  7.91718859
  -1.02279066  1.35245499  7.91315405
  -0.65225035 -1.55657201  7.92119816
  -4.19724586 -1.66474623 10.24934117
  -1.68127832 -2.79699935 10.25505641
  -1.94892682 -0.04775715 10.25480227
  -0.93302417 -1.30221097 12.59195339
  -3.62174445 -0.16468024 12.58015790
  -3.26746900 -3.05854826 12.59003545
  -1.58753332  2.84489256 10.25289453
   0.94000279  1.71962969 10.25325324
   0.64987075  4.47274389 10.25311678
   1.67785937  3.23065560 12.58767794
  -1.02108605  4.35400960 12.59051091
  -0.65014469  1.45019746 12.58603028
  -4.19264015  1.33225643 14.91698857
  -1.66424670  0.21432841 14.92174841
  -1.95697660  2.96543190 14.92219390
  -0.92965488  1.72199384 17.25650821
  -3.63171968  2.84613787 17.25387966
  -3.26047682 -0.05462063 17.25483549
   1.02507497 -1.67245524 10.25757424
   3.55047019 -2.79990813 10.25289631
   3.26152178 -0.04630484 10.25473621
   4.28612111 -1.28763078 12.58422774
   1.58705136 -0.16157815 12.59128603
   1.95948521 -3.06665225 12.59021326
  -1.58642912 -3.18257328 14.91990491
   0.94146583 -4.30367614 14.91958631
   0.65095354 -1.55119297 14.92425132
   1.67984799 -2.79622753 17.25652123
  -1.02092384 -1.66970347 17.25736443
  -0.65077997 -4.57494755 17.25312113
   1.02253765  1.34961692 14.92235424
   3.54788405  0.21789193 14.91756228
   3.26506081  2.96431811 14.92128330
   4.28300328  1.70992006 17.25625226
   1.59559619  2.85280950 17.26110022
   1.95369834 -0.04377012 17.25262673
  -1.58918517 -0.16518206 19.59100552
   0.94284265 -1.29310653 19.58793888
   0.65283842  1.45159762 19.59109346
   1.67616476  0.20685004 21.92997142
  -1.01545542  1.34540924 21.92645461
  -0.64430558 -1.54869355 21.92159427
   0.00648832  0.01092532  6.97017858
   0.00029977  3.01041283 11.62637032
  -2.61449483  1.49973077 16.29367263
   2.60035075 -1.50829965 11.62336866
  -0.01354469  3.00684225 18.63251294
   0.00270863 -3.01186818 16.29996125
 


--------------------------------------------------------------------------------------------------------


 k-point  1 :   0.0000 0.0000 0.0000  plane waves:   20649
 k-point  2 :   0.2500 0.0000 0.0000  plane waves:   20716
 k-point  3 :   0.5000 0.0000 0.0000  plane waves:   20728
 k-point  4 :   0.0000 0.2500 0.0000  plane waves:   20714
 k-point  5 :   0.2500 0.2500 0.0000  plane waves:   20704
 k-point  6 :   0.5000 0.2500 0.0000  plane waves:   20702
 k-point  7 :  -0.2500 0.2500 0.0000  plane waves:   20663
 k-point  8 :   0.0000 0.5000 0.0000  plane waves:   20726
 k-point  9 :   0.2500 0.5000 0.0000  plane waves:   20700
 k-point 10 :   0.5000 0.5000 0.0000  plane waves:   20668
 k-point 11 :   0.0000 0.0000 0.2500  plane waves:   20714
 k-point 12 :   0.2500 0.0000 0.2500  plane waves:   20705
 k-point 13 :   0.5000-0.0000 0.2500  plane waves:   20703
 k-point 14 :  -0.2500 0.0000 0.2500  plane waves:   20661
 k-point 15 :  -0.0000 0.2500 0.2500  plane waves:   20704
 k-point 16 :   0.2500 0.2500 0.2500  plane waves:   20686
 k-point 17 :   0.5000 0.2500 0.2500  plane waves:   20727
 k-point 18 :  -0.2500 0.2500 0.2500  plane waves:   20684
 k-point 19 :  -0.0000 0.5000 0.2500  plane waves:   20704
 k-point 20 :   0.2500 0.5000 0.2500  plane waves:   20727
 k-point 21 :   0.5000 0.5000 0.2500  plane waves:   20696
 k-point 22 :  -0.2500 0.5000 0.2500  plane waves:   20672
 k-point 23 :   0.0000-0.2500 0.2500  plane waves:   20663
 k-point 24 :   0.2500-0.2500 0.2500  plane waves:   20684
 k-point 25 :   0.5000-0.2500 0.2500  plane waves:   20675
 k-point 26 :  -0.2500-0.2500 0.2500  plane waves:   20685
 k-point 27 :   0.0000 0.0000 0.5000  plane waves:   20732
 k-point 28 :   0.2500 0.0000 0.5000  plane waves:   20703
 k-point 29 :   0.5000 0.0000 0.5000  plane waves:   20668
 k-point 30 :  -0.0000 0.2500 0.5000  plane waves:   20704
 k-point 31 :   0.2500 0.2500 0.5000  plane waves:   20724
 k-point 32 :   0.5000 0.2500 0.5000  plane waves:   20693
 k-point 33 :  -0.2500 0.2500 0.5000  plane waves:   20670
 k-point 34 :  -0.0000 0.5000 0.5000  plane waves:   20668
 k-point 35 :   0.2500 0.5000 0.5000  plane waves:   20694
 k-point 36 :   0.5000 0.5000 0.5000  plane waves:   20714

 maximum and minimum number of plane-waves per node :     20732    20649

 maximum number of plane-waves:     20732
 maximum index in each direction: 
   IXMAX=   20   IYMAX=   19   IZMAX=   19
   IXMIN=  -20   IYMIN=  -20   IZMIN=  -20


 serial   3D FFT for wavefunctions
 parallel 3D FFT for charge:
    minimum data exchange during FFTs selected (reduces bandwidth)


 total amount of memory used by VASP MPI-rank0   176851. kBytes
=======================================================================

   base      :      30000. kBytes
   nonlr-proj:      65267. kBytes
   fftplans  :       4575. kBytes
   grid      :      26165. kBytes
   one-center:       1244. kBytes
   wavefun   :      49600. kBytes
 
     INWAV:  cpu time    0.0000: real time    0.0000
 Broyden mixing: mesh for mixing (old mesh)
   NGX = 39   NGY = 39   NGZ = 39
  (NGX  =160   NGY  =160   NGZ  =160)
  gives a total of  59319 points

 initial charge density was supplied:
 charge density of overlapping atoms calculated
 number of electron     464.0000000 magnetization 
 keeping initial charge density in first step


--------------------------------------------------------------------------------------------------------


 Maximum index for non-local projection operator        12754
 Maximum index for augmentation-charges         1245 (set IRDMAX)


--------------------------------------------------------------------------------------------------------


 First call to EWALD:  gamma=   0.185
 Maximum number of real-space cells 3x 3x 3
 Maximum number of reciprocal cells 3x 3x 3

    FEWALD:  cpu time    0.0029: real time    0.0029


--------------------------------------- Iteration      1(   1)  ---------------------------------------


    POTLOK:  cpu time    0.0927: real time    0.0974
    SETDIJ:  cpu time    0.0114: real time    0.0114
     EDDAV:  cpu time   26.3547: real time   26.3525
 BZINTS: Fermi energy: 18.546112;464.000000 electrons
         Band energy:  41.361445;  BLOECHL correction: -0.021731
       DOS:  cpu time    0.0628: real time    0.0628
    --------------------------------------------
      LOOP:  cpu time   26.5216: real time   26.5241

 eigenvalue-minimisations  : 20736
 total energy-change (2. order) : 0.3586175E+04  (-0.2438758E+05)
 number of electron     464.0000000 magnetization 
 augmentation part      464.0000000 magnetization 

 Free energy of the ion-electron system (eV)
  ---------------------------------------------------
  alpha Z        PSCENC =      1562.80005997
  Ewald energy   TEWEN  =    -26366.79157258
  -Hartree energ DENC   =    -10847.41552188
  -exchange      EXHF   =         0.00000000
  -V(xc)+E(xc)   XCENC  =      1459.84970752
  PAW double counting   =     30201.20122080   -29545.67637776
  entropy T*S    EENTRO =         0.00000000
  eigenvalues    EBANDS =        41.36144513
  atomic energy  EATOM  =     37080.84622879
  Solvation  Ediel_sol  =         0.00000000
  ---------------------------------------------------
  free energy    TOTEN  =      3586.17518999 eV

  energy without entropy =     3586.17518999  energy(sigma->0) =     3586.17518999


--------------------------------------------------------------------------------------------------------




--------------------------------------- Iteration      1(   2)  ---------------------------------------


     EDDAV:  cpu time   38.9993: real time   39.0164
 BZINTS: Fermi energy:  0.895848;464.000000 electrons
         Band energy:***********;  BLOECHL correction:  0.000000
       DOS:  cpu time    0.0101: real time    0.0101
    --------------------------------------------
      LOOP:  cpu time   39.0094: real time   39.0265

 eigenvalue-minimisations  : 31104
 total energy-change (2. order) :-0.4143137E+04  (-0.4083704E+04)
 number of electron     464.0000000 magnetization 
 augmentation part      464.0000000 magnetization 

 Free energy of the ion-electron system (eV)
  ---------------------------------------------------
  alpha Z        PSCENC =      1562.80005997
  Ewald energy   TEWEN  =    -26366.79157258
  -Hartree energ DENC   =    -10847.41552188
  -exchange      EXHF   =         0.00000000
  -V(xc)+E(xc)   XCENC  =      1459.84970752
  PAW double counting   =     30201.20122080   -29545.67637776
  entropy T*S    EENTRO =         0.00000000
  eigenvalues    EBANDS =     -4101.77602807
  atomic energy  EATOM  =     37080.84622879
  Solvation  Ediel_sol  =         0.00000000
  ---------------------------------------------------
  free energy    TOTEN  =      -556.96228321 eV

  energy without entropy =     -556.96228321  energy(sigma->0) =     -556.96228321


--------------------------------------------------------------------------------------------------------




--------------------------------------- Iteration      1(   3)  ---------------------------------------


     EDDAV:  cpu time   38.7850: real time   38.7918
 BZINTS: Fermi energy: -0.081976;464.000000 electrons
         Band energy:***********;  BLOECHL correction:  0.000000
       DOS:  cpu time    0.0101: real time    0.0101
    --------------------------------------------
      LOOP:  cpu time   38.7951: real time   38.8019

 eigenvalue-minimisations  : 31104
 total energy-change (2. order) :-0.2450970E+03  (-0.2441953E+03)
 number of electron     464.0000000 magnetization 
 augmentation part      464.0000000 magnetization 

 Free energy of the ion-electron system (eV)
  ---------------------------------------------------
  alpha Z        PSCENC =      1562.80005997
  Ewald energy   TEWEN  =    -26366.79157258
  -Hartree energ DENC   =    -10847.41552188
  -exchange      EXHF   =         0.00000000
  -V(xc)+E(xc)   XCENC  =      1459.84970752
  PAW double counting   =     30201.20122080   -29545.67637776
  entropy T*S    EENTRO =         0.00000000
  eigenvalues    EBANDS =     -4346.87302716
  atomic energy  EATOM  =     37080.84622879
  Solvation  Ediel_sol  =         0.00000000
  ---------------------------------------------------
  free energy    TOTEN  =      -802.05928230 eV

  energy without entropy =     -802.05928230  energy(sigma->0) =     -802.05928230


--------------------------------------------------------------------------------------------------------




--------------------------------------- Iteration      1(   4)  ---------------------------------------


     EDDAV:  cpu time   45.2287: real time   45.2444
 BZINTS: Fermi energy: -0.077205;464.000000 electrons
         Band energy:***********;  BLOECHL correction:  0.000000
       DOS:  cpu time    0.0086: real time    0.0086
    --------------------------------------------
      LOOP:  cpu time   45.2373: real time   45.2530

 eigenvalue-minimisations  : 36288
 total energy-change (2. order) :-0.1092030E+02  (-0.1091079E+02)
 number of electron     464.0000000 magnetization 
 augmentation part      464.0000000 magnetization 

 Free energy of the ion-electron system (eV)
  ---------------------------------------------------
  alpha Z        PSCENC =      1562.80005997
  Ewald energy   TEWEN  =    -26366.79157258
  -Hartree energ DENC   =    -10847.41552188
  -exchange      EXHF   =         0.00000000
  -V(xc)+E(xc)   XCENC  =      1459.84970752
  PAW double counting   =     30201.20122080   -29545.67637776
  entropy T*S    EENTRO =         0.00000000
  eigenvalues    EBANDS =     -4357.79332726
  atomic energy  EATOM  =     37080.84622879
  Solvation  Ediel_sol  =         0.00000000
  ---------------------------------------------------
  free energy    TOTEN  =      -812.97958240 eV

  energy without entropy =     -812.97958240  energy(sigma->0) =     -812.97958240


--------------------------------------------------------------------------------------------------------




--------------------------------------- Iteration      1(   5)  ---------------------------------------


     EDDAV:  cpu time   39.0611: real time   39.0693
 BZINTS: Fermi energy: -0.142794;464.000000 electrons
         Band energy:***********;  BLOECHL correction:  0.000000
       DOS:  cpu time    0.0086: real time    0.0086
    CHARGE:  cpu time    0.9948: real time    0.9947
    MIXING:  cpu time    0.0012: real time    0.0012
    --------------------------------------------
      LOOP:  cpu time   40.0656: real time   40.0738

 eigenvalue-minimisations  : 31752
 total energy-change (2. order) :-0.2282999E+00  (-0.2282933E+00)
 number of electron     463.9999967 magnetization 
 augmentation part       51.6830656 magnetization 

 Broyden mixing:
  rms(total) = 0.98218E+01    rms(broyden)= 0.98207E+01
  rms(prec ) = 0.11862E+02
  weight for this iteration     100.00

 Free energy of the ion-electron system (eV)
  ---------------------------------------------------
  alpha Z        PSCENC =      1562.80005997
  Ewald energy   TEWEN  =    -26366.79157258
  -Hartree energ DENC   =    -10847.41552188
  -exchange      EXHF   =         0.00000000
  -V(xc)+E(xc)   XCENC  =      1459.84970752
  PAW double counting   =     30201.20122080   -29545.67637776
  entropy T*S    EENTRO =         0.00000000
  eigenvalues    EBANDS =     -4358.02162719
  atomic energy  EATOM  =     37080.84622879
  Solvation  Ediel_sol  =         0.00000000
  ---------------------------------------------------
  free energy    TOTEN  =      -813.20788233 eV

  energy without entropy =     -813.20788233  energy(sigma->0) =     -813.20788233


--------------------------------------------------------------------------------------------------------




--------------------------------------- Iteration      1(   6)  ---------------------------------------


    POTLOK:  cpu time    0.0491: real time    0.0609
    SETDIJ:  cpu time    0.0097: real time    0.0097
    EDDIAG:  cpu time    3.9560: real time    3.9555
  RMM-DIIS:  cpu time   13.9664: real time   13.9649
    ORTHCH:  cpu time    0.5603: real time    0.5603
 BZINTS: Fermi energy:  3.057742;464.000000 electrons
         Band energy:***********;  BLOECHL correction:  0.000000
       DOS:  cpu time    0.0103: real time    0.0103
    CHARGE:  cpu time    0.9918: real time    0.9917
    MIXING:  cpu time    0.0014: real time    0.0014
    --------------------------------------------
      LOOP:  cpu time   19.5450: real time   19.5547

 eigenvalue-minimisations  : 23916
 total energy-change (2. order) : 0.1238202E+03  (-0.7037325E+02)
 number of electron     463.9999977 magnetization 
 augmentation part       44.7352808 magnetization 

 Broyden mixing:
  rms(total) = 0.45030E+01    rms(broyden)= 0.45010E+01
  rms(prec ) = 0.46991E+01
  weight for this iteration     100.00

 eigenvalues of (default mixing * dielectric matrix)
  average eigenvalue GAMMA=   1.0390
  1.0390

 Free energy of the ion-electron system (eV)
  ---------------------------------------------------
  alpha Z        PSCENC =      1562.80005997
  Ewald energy   TEWEN  =    -26366.79157258
  -Hartree energ DENC   =    -11336.82671553
  -exchange      EXHF   =         0.00000000
  -V(xc)+E(xc)   XCENC  =      1513.58868485
  PAW double counting   =     35611.47013180   -34990.40316539
  entropy T*S    EENTRO =         0.00000000
  eigenvalues    EBANDS =     -3764.07130821
  atomic energy  EATOM  =     37080.84622879
  Solvation  Ediel_sol  =         0.00000000
  ---------------------------------------------------
  free energy    TOTEN  =      -689.38765631 eV

  energy without entropy =     -689.38765631  energy(sigma->0) =     -689.38765631


--------------------------------------------------------------------------------------------------------




--------------------------------------- Iteration      1(   7)  ---------------------------------------


    POTLOK:  cpu time    0.0478: real time    0.0620
    SETDIJ:  cpu time    0.0094: real time    0.0094
    EDDIAG:  cpu time    3.9884: real time    3.9881
  RMM-DIIS:  cpu time   15.9416: real time   15.9400
    ORTHCH:  cpu time    0.5627: real time    0.5627
 BZINTS: Fermi energy:  2.652940;464.000000 electrons
         Band energy:***********;  BLOECHL correction:  0.000000
       DOS:  cpu time    0.0100: real time    0.0100
    CHARGE:  cpu time    0.9921: real time    0.9920
    MIXING:  cpu time    0.0011: real time    0.0011
    --------------------------------------------
      LOOP:  cpu time   21.5533: real time   21.5653

 eigenvalue-minimisations  : 24984
 total energy-change (2. order) : 0.9972259E+01  (-0.3500884E+01)
 number of electron     463.9999975 magnetization 
 augmentation part       44.9994793 magnetization 

 Broyden mixing:
  rms(total) = 0.20600E+01    rms(broyden)= 0.20600E+01
  rms(prec ) = 0.21717E+01
  weight for this iteration     100.00

 eigenvalues of (default mixing * dielectric matrix)
  average eigenvalue GAMMA=   1.1540
  0.9308  1.3773

 Free energy of the ion-electron system (eV)
  ---------------------------------------------------
  alpha Z        PSCENC =      1562.80005997
  Ewald energy   TEWEN  =    -26366.79157258
  -Hartree energ DENC   =    -11184.07884016
  -exchange      EXHF   =         0.00000000
  -V(xc)+E(xc)   XCENC  =      1503.39609244
  PAW double counting   =     39812.73303438   -39182.39299612
  entropy T*S    EENTRO =         0.00000000
  eigenvalues    EBANDS =     -3905.92740428
  atomic energy  EATOM  =     37080.84622879
  Solvation  Ediel_sol  =         0.00000000
  ---------------------------------------------------
  free energy    TOTEN  =      -679.41539755 eV

  energy without entropy =     -679.41539755  energy(sigma->0) =     -679.41539755


--------------------------------------------------------------------------------------------------------




--------------------------------------- Iteration      1(   8)  ---------------------------------------


    POTLOK:  cpu time    0.0507: real time    0.0685
    SETDIJ:  cpu time    0.0094: real time    0.0098
    EDDIAG:  cpu time    3.9630: real time    3.9625
  RMM-DIIS:  cpu time   15.7483: real time   15.7470
    ORTHCH:  cpu time    0.5600: real time    0.5600
 BZINTS: Fermi energy:  2.396929;464.000000 electrons
         Band energy:***********;  BLOECHL correction:  0.000000
       DOS:  cpu time    0.0084: real time    0.0084
    CHARGE:  cpu time    0.9828: real time    0.9827
    MIXING:  cpu time    0.0014: real time    0.0014
    --------------------------------------------
      LOOP:  cpu time   21.3241: real time   21.3401

 eigenvalue-minimisations  : 25087
 total energy-change (2. order) : 0.1850507E+00  (-0.1372230E+01)
 number of electron     463.9999973 magnetization 
 augmentation part       45.3218048 magnetization 

 Broyden mixing:
  rms(total) = 0.76145E+00    rms(broyden)= 0.76122E+00
  rms(prec ) = 0.82084E+00
  weight for this iteration     100.00

 eigenvalues of (default mixing * dielectric matrix)
  average eigenvalue GAMMA=   1.3298
  2.0856  0.9520  0.9520

 Free energy of the ion-electron system (eV)
  ---------------------------------------------------
  alpha Z        PSCENC =      1562.80005997
  Ewald energy   TEWEN  =    -26366.79157258
  -Hartree energ DENC   =    -11127.23303567
  -exchange      EXHF   =         0.00000000
  -V(xc)+E(xc)   XCENC  =      1499.89512719
  PAW double counting   =     41850.12781307   -41207.47038063
  entropy T*S    EENTRO =         0.00000000
  eigenvalues    EBANDS =     -3971.40458698
  atomic energy  EATOM  =     37080.84622879
  Solvation  Ediel_sol  =         0.00000000
  ---------------------------------------------------
  free energy    TOTEN  =      -679.23034684 eV

  energy without entropy =     -679.23034684  energy(sigma->0) =     -679.23034684


--------------------------------------------------------------------------------------------------------




--------------------------------------- Iteration      1(   9)  ---------------------------------------


    POTLOK:  cpu time    0.0497: real time    0.0645
    SETDIJ:  cpu time    0.0094: real time    0.0097
    EDDIAG:  cpu time    3.9747: real time    3.9742
  RMM-DIIS:  cpu time   17.7977: real time   17.7953
    ORTHCH:  cpu time    0.5618: real time    0.5617
 BZINTS: Fermi energy:  2.568945;464.000000 electrons
         Band energy:***********;  BLOECHL correction:  0.000000
       DOS:  cpu time    0.0099: real time    0.0099
    CHARGE:  cpu time    0.9804: real time    0.9803
    MIXING:  cpu time    0.0013: real time    0.0013
    --------------------------------------------
      LOOP:  cpu time   23.3848: real time   23.3970

 eigenvalue-minimisations  : 32456
 total energy-change (2. order) : 0.7897344E-01  (-0.2274859E+00)
 number of electron     463.9999974 magnetization 
 augmentation part       44.9980719 magnetization 

 Broyden mixing:
  rms(total) = 0.26514E+00    rms(broyden)= 0.26510E+00
  rms(prec ) = 0.30400E+00
  weight for this iteration     100.00

 eigenvalues of (default mixing * dielectric matrix)
  average eigenvalue GAMMA=   1.4736
  2.2571  1.8517  0.8928  0.8928

 Free energy of the ion-electron system (eV)
  ---------------------------------------------------
  alpha Z        PSCENC =      1562.80005997
  Ewald energy   TEWEN  =    -26366.79157258
  -Hartree energ DENC   =    -11161.20760664
  -exchange      EXHF   =         0.00000000
  -V(xc)+E(xc)   XCENC  =      1502.79086961
  PAW double counting   =     43363.69628102   -42711.81756150
  entropy T*S    EENTRO =         0.00000000
  eigenvalues    EBANDS =     -3949.46807208
  atomic energy  EATOM  =     37080.84622879
  Solvation  Ediel_sol  =         0.00000000
  ---------------------------------------------------
  free energy    TOTEN  =      -679.15137340 eV

  energy without entropy =     -679.15137340  energy(sigma->0) =     -679.15137340


--------------------------------------------------------------------------------------------------------




--------------------------------------- Iteration      1(  10)  ---------------------------------------


    POTLOK:  cpu time    0.0498: real time    0.0612
    SETDIJ:  cpu time    0.0093: real time    0.0093
    EDDIAG:  cpu time    3.9670: real time    3.9664
  RMM-DIIS:  cpu time   17.9303: real time   17.9280
    ORTHCH:  cpu time    0.5608: real time    0.5607
 BZINTS: Fermi energy:  2.602015;464.000000 electrons
         Band energy:***********;  BLOECHL correction:  0.000000
       DOS:  cpu time    0.0099: real time    0.0099
    CHARGE:  cpu time    0.9792: real time    0.9790
    MIXING:  cpu time    0.0012: real time    0.0012
    --------------------------------------------
      LOOP:  cpu time   23.5075: real time   23.5158

 eigenvalue-minimisations  : 31988
 total energy-change (2. order) : 0.5989968E-02  (-0.4855656E-01)
 number of electron     463.9999973 magnetization 
 augmentation part       44.8260808 magnetization 

 Broyden mixing:
  rms(total) = 0.65111E-01    rms(broyden)= 0.65064E-01
  rms(prec ) = 0.74268E-01
  weight for this iteration     100.00

 eigenvalues of (default mixing * dielectric matrix)
  average eigenvalue GAMMA=   1.4054
  2.6068  1.8812  0.9145  0.9145  0.7099

 Free energy of the ion-electron system (eV)
  ---------------------------------------------------
  alpha Z        PSCENC =      1562.80005997
  Ewald energy   TEWEN  =    -26366.79157258
  -Hartree energ DENC   =    -11198.98331470
  -exchange      EXHF   =         0.00000000
  -V(xc)+E(xc)   XCENC  =      1504.46972618
  PAW double counting   =     43435.98008547   -42776.53116100
  entropy T*S    EENTRO =         0.00000000
  eigenvalues    EBANDS =     -3920.93543557
  atomic energy  EATOM  =     37080.84622879
  Solvation  Ediel_sol  =         0.00000000
  ---------------------------------------------------
  free energy    TOTEN  =      -679.14538344 eV

  energy without entropy =     -679.14538344  energy(sigma->0) =     -679.14538344


--------------------------------------------------------------------------------------------------------




--------------------------------------- Iteration      1(  11)  ---------------------------------------


    POTLOK:  cpu time    0.0508: real time    0.0614
    SETDIJ:  cpu time    0.0094: real time    0.0098
    EDDIAG:  cpu time    3.9803: real time    3.9802
  RMM-DIIS:  cpu time   18.4562: real time   18.4533
    ORTHCH:  cpu time    0.5608: real time    0.5608
 BZINTS: Fermi energy:  2.588873;464.000000 electrons
         Band energy:***********;  BLOECHL correction:  0.000000
       DOS:  cpu time    0.0099: real time    0.0099
    CHARGE:  cpu time    0.9973: real time    0.9971
    MIXING:  cpu time    0.0013: real time    0.0013
    --------------------------------------------
      LOOP:  cpu time   24.0660: real time   24.0737

 eigenvalue-minimisations  : 34448
 total energy-change (2. order) :-0.1269135E-01  (-0.1382941E-01)
 number of electron     463.9999973 magnetization 
 augmentation part       44.7537559 magnetization 

 Broyden mixing:
  rms(total) = 0.38357E-01    rms(broyden)= 0.38339E-01
  rms(prec ) = 0.43481E-01
  weight for this iteration     100.00

 eigenvalues of (default mixing * dielectric matrix)
  average eigenvalue GAMMA=   1.3867
  2.8533  1.8859  0.9639  0.9639  0.8265  0.8265

 Free energy of the ion-electron system (eV)
  ---------------------------------------------------
  alpha Z        PSCENC =      1562.80005997
  Ewald energy   TEWEN  =    -26366.79157258
  -Hartree energ DENC   =    -11201.84852334
  -exchange      EXHF   =         0.00000000
  -V(xc)+E(xc)   XCENC  =      1504.62905258
  PAW double counting   =     43520.70612078   -42859.18544182
  entropy T*S    EENTRO =         0.00000000
  eigenvalues    EBANDS =     -3920.31399916
  atomic energy  EATOM  =     37080.84622879
  Solvation  Ediel_sol  =         0.00000000
  ---------------------------------------------------
  free energy    TOTEN  =      -679.15807478 eV

  energy without entropy =     -679.15807478  energy(sigma->0) =     -679.15807478


--------------------------------------------------------------------------------------------------------




--------------------------------------- Iteration      1(  12)  ---------------------------------------


    POTLOK:  cpu time    0.0473: real time    0.0660
    SETDIJ:  cpu time    0.0093: real time    0.0093
    EDDIAG:  cpu time    3.9638: real time    3.9634
  RMM-DIIS:  cpu time   18.6015: real time   18.5996
    ORTHCH:  cpu time    0.5612: real time    0.5611
 BZINTS: Fermi energy:  2.586291;464.000000 electrons
         Band energy:***********;  BLOECHL correction:  0.000000
       DOS:  cpu time    0.0099: real time    0.0099
    CHARGE:  cpu time    0.9979: real time    0.9977
    MIXING:  cpu time    0.0013: real time    0.0013
    --------------------------------------------
      LOOP:  cpu time   24.1922: real time   24.2085

 eigenvalue-minimisations  : 34400
 total energy-change (2. order) :-0.3516132E-02  (-0.4891426E-02)
 number of electron     463.9999973 magnetization 
 augmentation part       44.7093781 magnetization 

 Broyden mixing:
  rms(total) = 0.34907E-01    rms(broyden)= 0.34902E-01
  rms(prec ) = 0.37647E-01
  weight for this iteration     100.00

 eigenvalues of (default mixing * dielectric matrix)
  average eigenvalue GAMMA=   1.4096
  3.1550  2.0019  1.0885  1.0885  0.9185  0.9185  0.6962

 Free energy of the ion-electron system (eV)
  ---------------------------------------------------
  alpha Z        PSCENC =      1562.80005997
  Ewald energy   TEWEN  =    -26366.79157258
  -Hartree energ DENC   =    -11201.80282437
  -exchange      EXHF   =         0.00000000
  -V(xc)+E(xc)   XCENC  =      1504.62956379
  PAW double counting   =     43543.69796511   -42880.92747089
  entropy T*S    EENTRO =         0.00000000
  eigenvalues    EBANDS =     -3921.61354073
  atomic energy  EATOM  =     37080.84622879
  Solvation  Ediel_sol  =         0.00000000
  ---------------------------------------------------
  free energy    TOTEN  =      -679.16159091 eV

  energy without entropy =     -679.16159091  energy(sigma->0) =     -679.16159091


--------------------------------------------------------------------------------------------------------




--------------------------------------- Iteration      1(  13)  ---------------------------------------


    POTLOK:  cpu time    0.0512: real time    0.0707
    SETDIJ:  cpu time    0.0094: real time    0.0098
    EDDIAG:  cpu time    3.9558: real time    3.9553
  RMM-DIIS:  cpu time   18.4579: real time   18.4553
    ORTHCH:  cpu time    0.5609: real time    0.5608
 BZINTS: Fermi energy:  2.583896;464.000000 electrons
         Band energy:***********;  BLOECHL correction:  0.000000
       DOS:  cpu time    0.0099: real time    0.0099
    CHARGE:  cpu time    0.9970: real time    0.9969
    MIXING:  cpu time    0.0013: real time    0.0013
    --------------------------------------------
      LOOP:  cpu time   24.0433: real time   24.0601

 eigenvalue-minimisations  : 34484
 total energy-change (2. order) :-0.1105632E-02  (-0.1710921E-02)
 number of electron     463.9999973 magnetization 
 augmentation part       44.6957180 magnetization 

 Broyden mixing:
  rms(total) = 0.17217E-01    rms(broyden)= 0.17212E-01
  rms(prec ) = 0.20351E-01
  weight for this iteration     100.00

 eigenvalues of (default mixing * dielectric matrix)
  average eigenvalue GAMMA=   1.4771
  2.7968  2.3192  1.5839  1.5839  1.0124  0.8740  0.8740  0.7723

 Free energy of the ion-electron system (eV)
  ---------------------------------------------------
  alpha Z        PSCENC =      1562.80005997
  Ewald energy   TEWEN  =    -26366.79157258
  -Hartree energ DENC   =    -11202.72182722
  -exchange      EXHF   =         0.00000000
  -V(xc)+E(xc)   XCENC  =      1504.62641095
  PAW double counting   =     43563.76711860   -42899.16017938
  entropy T*S    EENTRO =         0.00000000
  eigenvalues    EBANDS =     -3922.52893567
  atomic energy  EATOM  =     37080.84622879
  Solvation  Ediel_sol  =         0.00000000
  ---------------------------------------------------
  free energy    TOTEN  =      -679.16269655 eV

  energy without entropy =     -679.16269655  energy(sigma->0) =     -679.16269655


--------------------------------------------------------------------------------------------------------




--------------------------------------- Iteration      1(  14)  ---------------------------------------


    POTLOK:  cpu time    0.0478: real time    0.0597
    SETDIJ:  cpu time    0.0093: real time    0.0097
    EDDIAG:  cpu time    3.9673: real time    3.9670
  RMM-DIIS:  cpu time   18.1744: real time   18.1717
    ORTHCH:  cpu time    0.5605: real time    0.5604
 BZINTS: Fermi energy:  2.578636;464.000000 electrons
         Band energy:***********;  BLOECHL correction:  0.000000
       DOS:  cpu time    0.0098: real time    0.0098
    CHARGE:  cpu time    0.9954: real time    0.9952
    MIXING:  cpu time    0.0015: real time    0.0015
    --------------------------------------------
      LOOP:  cpu time   23.7660: real time   23.7751

 eigenvalue-minimisations  : 34179
 total energy-change (2. order) :-0.9925878E-04  (-0.8968364E-03)
 number of electron     463.9999973 magnetization 
 augmentation part       44.6806231 magnetization 

 Broyden mixing:
  rms(total) = 0.92211E-02    rms(broyden)= 0.92166E-02
  rms(prec ) = 0.10724E-01
  weight for this iteration     100.00

 eigenvalues of (default mixing * dielectric matrix)
  average eigenvalue GAMMA=   1.4445
  3.0514  2.4488  1.6753  1.6753  0.8937  0.8937  0.8479  0.7573  0.7573

 Free energy of the ion-electron system (eV)
  ---------------------------------------------------
  alpha Z        PSCENC =      1562.80005997
  Ewald energy   TEWEN  =    -26366.79157258
  -Hartree energ DENC   =    -11202.28558298
  -exchange      EXHF   =         0.00000000
  -V(xc)+E(xc)   XCENC  =      1504.62384884
  PAW double counting   =     43570.37735541   -42904.86920143
  entropy T*S    EENTRO =         0.00000000
  eigenvalues    EBANDS =     -3923.86393182
  atomic energy  EATOM  =     37080.84622879
  Solvation  Ediel_sol  =         0.00000000
  ---------------------------------------------------
  free energy    TOTEN  =      -679.16279580 eV

  energy without entropy =     -679.16279580  energy(sigma->0) =     -679.16279580


--------------------------------------------------------------------------------------------------------




--------------------------------------- Iteration      1(  15)  ---------------------------------------


    POTLOK:  cpu time    0.0497: real time    0.0626
    SETDIJ:  cpu time    0.0093: real time    0.0093
    EDDIAG:  cpu time    3.9654: real time    3.9649
  RMM-DIIS:  cpu time   19.1314: real time   19.1286
    ORTHCH:  cpu time    0.5631: real time    0.5631
 BZINTS: Fermi energy:  2.575291;464.000000 electrons
         Band energy:***********;  BLOECHL correction:  0.000000
       DOS:  cpu time    0.0099: real time    0.0099
    CHARGE:  cpu time    0.9968: real time    0.9966
    MIXING:  cpu time    0.0015: real time    0.0015
    --------------------------------------------
      LOOP:  cpu time   24.7271: real time   24.7365

 eigenvalue-minimisations  : 34781
 total energy-change (2. order) :-0.2177816E-03  (-0.2963179E-03)
 number of electron     463.9999973 magnetization 
 augmentation part       44.6720315 magnetization 

 Broyden mixing:
  rms(total) = 0.40271E-02    rms(broyden)= 0.40244E-02
  rms(prec ) = 0.44361E-02
  weight for this iteration     100.00

 eigenvalues of (default mixing * dielectric matrix)
  average eigenvalue GAMMA=   1.5236
  3.6437  2.4824  1.8033  1.8033  1.0225  1.0225  0.9115  0.9115  0.8174  0.8174

 Free energy of the ion-electron system (eV)
  ---------------------------------------------------
  alpha Z        PSCENC =      1562.80005997
  Ewald energy   TEWEN  =    -26366.79157258
  -Hartree energ DENC   =    -11202.66617481
  -exchange      EXHF   =         0.00000000
  -V(xc)+E(xc)   XCENC  =      1504.62515690
  PAW double counting   =     43568.32440638   -42902.46872474
  entropy T*S    EENTRO =         0.00000000
  eigenvalues    EBANDS =     -3923.83239349
  atomic energy  EATOM  =     37080.84622879
  Solvation  Ediel_sol  =         0.00000000
  ---------------------------------------------------
  free energy    TOTEN  =      -679.16301359 eV

  energy without entropy =     -679.16301359  energy(sigma->0) =     -679.16301359


--------------------------------------------------------------------------------------------------------




--------------------------------------- Iteration      1(  16)  ---------------------------------------


    POTLOK:  cpu time    0.0499: real time    0.0608
    SETDIJ:  cpu time    0.0096: real time    0.0100
    EDDIAG:  cpu time    3.9608: real time    3.9604
  RMM-DIIS:  cpu time   19.1060: real time   19.1032
    ORTHCH:  cpu time    0.5602: real time    0.5602
 BZINTS: Fermi energy:  2.571569;464.000000 electrons
         Band energy:***********;  BLOECHL correction:  0.000000
       DOS:  cpu time    0.0099: real time    0.0099
    CHARGE:  cpu time    0.9751: real time    0.9750
    MIXING:  cpu time    0.0016: real time    0.0016
    --------------------------------------------
      LOOP:  cpu time   24.6732: real time   24.6811

 eigenvalue-minimisations  : 34754
 total energy-change (2. order) :-0.1019909E-03  (-0.1039904E-03)
 number of electron     463.9999973 magnetization 
 augmentation part       44.6691131 magnetization 

 Broyden mixing:
  rms(total) = 0.36794E-02    rms(broyden)= 0.36777E-02
  rms(prec ) = 0.42403E-02
  weight for this iteration     100.00

 eigenvalues of (default mixing * dielectric matrix)
  average eigenvalue GAMMA=   1.5392
  3.7458  2.7441  2.3541  1.3625  1.3625  0.9969  0.9969  0.8478  0.8478  0.9058
  0.7674

 Free energy of the ion-electron system (eV)
  ---------------------------------------------------
  alpha Z        PSCENC =      1562.80005997
  Ewald energy   TEWEN  =    -26366.79157258
  -Hartree energ DENC   =    -11202.99159128
  -exchange      EXHF   =         0.00000000
  -V(xc)+E(xc)   XCENC  =      1504.62995423
  PAW double counting   =     43577.20741577   -42910.89512299
  entropy T*S    EENTRO =         0.00000000
  eigenvalues    EBANDS =     -3923.96848748
  atomic energy  EATOM  =     37080.84622879
  Solvation  Ediel_sol  =         0.00000000
  ---------------------------------------------------
  free energy    TOTEN  =      -679.16311558 eV

  energy without entropy =     -679.16311558  energy(sigma->0) =     -679.16311558


--------------------------------------------------------------------------------------------------------




--------------------------------------- Iteration      1(  17)  ---------------------------------------


    POTLOK:  cpu time    0.0468: real time    0.0651
    SETDIJ:  cpu time    0.0093: real time    0.0093
    EDDIAG:  cpu time    3.9545: real time    3.9541
  RMM-DIIS:  cpu time   19.0325: real time   19.0303
    ORTHCH:  cpu time    0.5633: real time    0.5632
 BZINTS: Fermi energy:  2.567334;464.000000 electrons
         Band energy:***********;  BLOECHL correction:  0.000000
       DOS:  cpu time    0.0099: real time    0.0099
    CHARGE:  cpu time    0.9756: real time    0.9754
    MIXING:  cpu time    0.0016: real time    0.0016
    --------------------------------------------
      LOOP:  cpu time   24.5933: real time   24.6089

 eigenvalue-minimisations  : 34289
 total energy-change (2. order) :-0.3425157E-04  (-0.5033054E-04)
 number of electron     463.9999973 magnetization 
 augmentation part       44.6637631 magnetization 

 Broyden mixing:
  rms(total) = 0.18707E-02    rms(broyden)= 0.18696E-02
  rms(prec ) = 0.19232E-02
  weight for this iteration     100.00

 eigenvalues of (default mixing * dielectric matrix)
  average eigenvalue GAMMA=   1.5318
  4.2478  2.7976  2.3045  1.4080  1.3004  1.3004  0.8158  0.8158  0.8988  0.8988
  0.7705  0.8228

 Free energy of the ion-electron system (eV)
  ---------------------------------------------------
  alpha Z        PSCENC =      1562.80005997
  Ewald energy   TEWEN  =    -26366.79157258
  -Hartree energ DENC   =    -11202.86620661
  -exchange      EXHF   =         0.00000000
  -V(xc)+E(xc)   XCENC  =      1504.63083827
  PAW double counting   =     43577.26467956   -42911.00278688
  entropy T*S    EENTRO =         0.00000000
  eigenvalues    EBANDS =     -3924.04439034
  atomic energy  EATOM  =     37080.84622879
  Solvation  Ediel_sol  =         0.00000000
  ---------------------------------------------------
  free energy    TOTEN  =      -679.16314983 eV

  energy without entropy =     -679.16314983  energy(sigma->0) =     -679.16314983


--------------------------------------------------------------------------------------------------------




--------------------------------------- Iteration      1(  18)  ---------------------------------------


    POTLOK:  cpu time    0.0515: real time    0.0623
    SETDIJ:  cpu time    0.0093: real time    0.0097
    EDDIAG:  cpu time    3.9538: real time    3.9532
  RMM-DIIS:  cpu time   18.1136: real time   18.1112
    ORTHCH:  cpu time    0.5627: real time    0.5626
 BZINTS: Fermi energy:  2.563244;464.000000 electrons
         Band energy:***********;  BLOECHL correction:  0.000000
       DOS:  cpu time    0.0099: real time    0.0099
    CHARGE:  cpu time    0.9749: real time    0.9747
    MIXING:  cpu time    0.0017: real time    0.0017
    --------------------------------------------
      LOOP:  cpu time   23.6773: real time   23.6854

 eigenvalue-minimisations  : 32631
 total energy-change (2. order) :-0.1714665E-04  (-0.1672728E-04)
 number of electron     463.9999973 magnetization 
 augmentation part       44.6617810 magnetization 

 Broyden mixing:
  rms(total) = 0.16215E-02    rms(broyden)= 0.16212E-02
  rms(prec ) = 0.16244E-02
  weight for this iteration     100.00

 eigenvalues of (default mixing * dielectric matrix)
  average eigenvalue GAMMA=   1.5940
  4.6885  2.7738  2.1574  2.1574  1.4595  1.4595  0.9915  0.9004  0.9004  0.8724
  0.8724  0.7448  0.7448

[...]
      LOOP:  cpu time   19.7686: real time   19.8009

 eigenvalue-minimisations  : 24344
 total energy-change (2. order) :-0.2064898E-03  (-0.2259615E-03)
 number of electron     463.9999979 magnetization 
 augmentation part       44.6654544 magnetization 

 eigenvalues of (default mixing * dielectric matrix)
  average eigenvalue GAMMA=   1.3898
  2.1399  1.0147  1.0147

  free energy =  -0.679804677654E+03  energy without entropy=  -0.679804677654E+03


--------------------------------------------------------------------------------------------------------




--------------------------------------- Iteration     21(   5)  ---------------------------------------


    POTLOK:  cpu time    0.0463: real time    0.0588
    SETDIJ:  cpu time    0.0095: real time    0.0098
    EDDIAG:  cpu time    3.9677: real time    3.9676
  RMM-DIIS:  cpu time   11.9249: real time   11.9235
    ORTHCH:  cpu time    0.5597: real time    0.5596
 BZINTS: Fermi energy:  2.606973;464.000000 electrons
         Band energy:***********;  BLOECHL correction:  0.000000
       DOS:  cpu time    0.0098: real time    0.0098
    CHARGE:  cpu time    0.9863: real time    0.9861
    MIXING:  cpu time    0.0012: real time    0.0011
    --------------------------------------------
      LOOP:  cpu time   17.5052: real time   17.5164

 eigenvalue-minimisations  : 18825
 total energy-change (2. order) :-0.3490143E-04  (-0.4294820E-04)
 number of electron     463.9999979 magnetization 
 augmentation part       44.6650212 magnetization 

 eigenvalues of (default mixing * dielectric matrix)
  average eigenvalue GAMMA=   1.4114
  2.2359  1.7477  0.8311  0.8311

  free energy =  -0.679804712556E+03  energy without entropy=  -0.679804712556E+03


--------------------------------------------------------------------------------------------------------




--------------------------------------- Iteration     21(   6)  ---------------------------------------


    POTLOK:  cpu time    0.0463: real time    0.0575
    SETDIJ:  cpu time    0.0095: real time    0.0098
    EDDIAG:  cpu time    3.9532: real time    3.9526
  RMM-DIIS:  cpu time    7.6925: real time    7.6917
    ORTHCH:  cpu time    0.5596: real time    0.5596
 BZINTS: Fermi energy:  2.606755;464.000000 electrons
         Band energy:***********;  BLOECHL correction:  0.000000
       DOS:  cpu time    0.0099: real time    0.0099
    CHARGE:  cpu time    0.9868: real time    0.9867
    MIXING:  cpu time    0.0012: real time    0.0012
    --------------------------------------------
      LOOP:  cpu time   13.2589: real time   13.2690

 eigenvalue-minimisations  : 12593
 total energy-change (2. order) :-0.1865534E-04  (-0.1984021E-04)
 number of electron     463.9999979 magnetization 
 augmentation part       44.6647871 magnetization 

 eigenvalues of (default mixing * dielectric matrix)
  average eigenvalue GAMMA=   1.3479
  2.2760  1.7994  0.9371  0.9371  0.7900

  free energy =  -0.679804731211E+03  energy without entropy=  -0.679804731211E+03


--------------------------------------------------------------------------------------------------------




--------------------------------------- Iteration     21(   7)  ---------------------------------------


    POTLOK:  cpu time    0.0459: real time    0.0579
    SETDIJ:  cpu time    0.0094: real time    0.0098
    EDDIAG:  cpu time    3.9536: real time    3.9530
  RMM-DIIS:  cpu time    7.8476: real time    7.8468
    ORTHCH:  cpu time    0.5582: real time    0.5581
 BZINTS: Fermi energy:  2.606627;464.000000 electrons
         Band energy:***********;  BLOECHL correction:  0.000000
       DOS:  cpu time    0.0099: real time    0.0099
    CHARGE:  cpu time    0.9837: real time    0.9835
    MIXING:  cpu time    0.0012: real time    0.0012
    --------------------------------------------
      LOOP:  cpu time   13.4093: real time   13.4201

 eigenvalue-minimisations  : 12406
 total energy-change (2. order) :-0.5206326E-05  (-0.6158717E-05)
 number of electron     463.9999979 magnetization 
 augmentation part       44.6647482 magnetization 

 eigenvalues of (default mixing * dielectric matrix)
  average eigenvalue GAMMA=   1.3775
  2.5609  2.0121  1.1345  0.8374  0.8374  0.8828

  free energy =  -0.679804736417E+03  energy without entropy=  -0.679804736417E+03


--------------------------------------------------------------------------------------------------------




--------------------------------------- Iteration     21(   8)  ---------------------------------------


    POTLOK:  cpu time    0.0464: real time    0.0648
    SETDIJ:  cpu time    0.0093: real time    0.0093
    EDDIAG:  cpu time    3.9566: real time    3.9561
  RMM-DIIS:  cpu time    7.7341: real time    7.7333
    ORTHCH:  cpu time    0.5577: real time    0.5577
 BZINTS: Fermi energy:  2.606471;464.000000 electrons
         Band energy:***********;  BLOECHL correction:  0.000000
       DOS:  cpu time    0.0099: real time    0.0099
    CHARGE:  cpu time    0.9859: real time    0.9858
    MIXING:  cpu time    0.0013: real time    0.0013
    --------------------------------------------
      LOOP:  cpu time   13.3012: real time   13.3181

 eigenvalue-minimisations  : 12351
 total energy-change (2. order) :-0.2811481E-05  (-0.2950739E-05)
 number of electron     463.9999979 magnetization 
 augmentation part       44.6647156 magnetization 

 eigenvalues of (default mixing * dielectric matrix)
  average eigenvalue GAMMA=   1.3662
  2.7622  2.1915  1.1822  0.9403  0.9403  0.8814  0.6652

  free energy =  -0.679804739229E+03  energy without entropy=  -0.679804739229E+03


--------------------------------------------------------------------------------------------------------




--------------------------------------- Iteration     21(   9)  ---------------------------------------


    POTLOK:  cpu time    0.0469: real time    0.0663
    SETDIJ:  cpu time    0.0094: real time    0.0094
    EDDIAG:  cpu time    3.9548: real time    3.9547
  RMM-DIIS:  cpu time    7.7046: real time    7.7041
    ORTHCH:  cpu time    0.5595: real time    0.5595
 BZINTS: Fermi energy:  2.606345;464.000000 electrons
         Band energy:***********;  BLOECHL correction:  0.000000
       DOS:  cpu time    0.0098: real time    0.0098
    CHARGE:  cpu time    0.9835: real time    0.9836
    MIXING:  cpu time    0.0013: real time    0.0013
    --------------------------------------------
      LOOP:  cpu time   13.2699: real time   13.2886

 eigenvalue-minimisations  : 12199
 total energy-change (2. order) :-0.9267387E-06  (-0.1044738E-05)
 number of electron     463.9999979 magnetization 
 augmentation part       44.6646830 magnetization 

 eigenvalues of (default mixing * dielectric matrix)
  average eigenvalue GAMMA=   1.4127
  2.9450  2.4211  1.3491  1.3491  0.9120  0.9120  0.8526  0.5603

  free energy =  -0.679804740156E+03  energy without entropy=  -0.679804740156E+03


--------------------------------------------------------------------------------------------------------




--------------------------------------- Iteration     21(  10)  ---------------------------------------


    POTLOK:  cpu time    0.0459: real time    0.0637
    SETDIJ:  cpu time    0.0094: real time    0.0097
    EDDIAG:  cpu time    3.9534: real time    3.9532
  RMM-DIIS:  cpu time    7.5388: real time    7.5383
    ORTHCH:  cpu time    0.5580: real time    0.5580
 BZINTS: Fermi energy:  2.606229;464.000000 electrons
         Band energy:***********;  BLOECHL correction:  0.000000
       DOS:  cpu time    0.0098: real time    0.0098
    --------------------------------------------
      LOOP:  cpu time   12.1153: real time   12.1328

 eigenvalue-minimisations  : 10128
 total energy-change (2. order) :-0.4624235E-06  (-0.4925643E-06)
 number of electron     463.9999979 magnetization 
 augmentation part       44.6646830 magnetization 

  free energy =  -0.679804740618E+03  energy without entropy=  -0.679804740618E+03


--------------------------------------------------------------------------------------------------------




------------------------ aborting loop because EDIFF is reached ----------------------------------------


    CHARGE:  cpu time    0.9849: real time    0.9848
    FORLOC:  cpu time    0.0159: real time    0.0159
    FORNL :  cpu time    7.3212: real time    7.3206
    STRESS:  cpu time   21.8625: real time   21.8609
    FORCOR:  cpu time    0.0489: real time    0.0489
    FORHAR:  cpu time    0.0229: real time    0.0230
    MIXING:  cpu time    0.0013: real time    0.0013
    OFIELD:  cpu time    0.0000: real time    0.0000

  FORCE on cell =-STRESS in cart. coord.  units (eV):
  Direction    XX          YY          ZZ          XY          YZ          ZX
  --------------------------------------------------------------------------------------
  Alpha Z  1562.80006  1562.80006  1562.80006
  Ewald   -8654.42963 -8585.40850 -8861.42007    47.00788   -36.63484    89.62857
  Hartree  3769.80247  3836.35988  3871.75859    40.80076   -34.97321    81.75375
  E(xc)   -2179.97440 -2179.99174 -2177.77569     0.08860    -0.02101     0.01422
  Local   -2959.89855 -3095.40805 -2859.23613   -88.07511    71.64400  -171.54149
  n-local -1210.00098 -1209.83588 -1197.07245    -0.60455     0.05079    -0.33109
  augment   515.84590   515.81641   512.01987     0.08507    -0.00927     0.03073
  Kinetic  9126.83419  9126.64504  9119.95690     0.69104    -0.05186     0.44563
  Fock        0.00000     0.00000     0.00000     0.00000     0.00000     0.00000
  -------------------------------------------------------------------------------------
  Total     -29.02093   -29.02278   -28.96892    -0.00630     0.00460     0.00033
  in kB     -52.80739   -52.81075   -52.71274    -0.01146     0.00838     0.00060
  external pressure =      -52.78 kB  Pullay stress =        0.00 kB



--------------------------------------------------------------------------------------------------------



  FREE ENERGIE OF THE ION-ELECTRON SYSTEM (eV)
  ---------------------------------------------------
  free  energy   TOTEN  =      -679.80474062 eV

  energy  without entropy=     -679.80474062  energy(sigma->0) =     -679.80474062
 
 d Force = 0.2262083E-05[-0.496E-05, 0.948E-05]  d Energy = 0.3482927E+00-0.348E+00
 d Force =-0.3039040E+00[-0.304E+00,-0.304E+00]  d Ewald  =-0.2958732E+00-0.803E-02


--------------------------------------------------------------------------------------------------------


    POTLOK:  cpu time    0.0550: real time    0.0550


--------------------------------------------------------------------------------------------------------


 Quasi-Newton relaxation of ions (Broydens 2nd method)
  g(Force)  = 0.633E-05   g(Stress)= 0.360E-06

 retain information from N=  1 steps
 eigenvalues of (default step * inverse Hessian matrix)
  average eigenvalue of G=   0.6695
 eigenvalue spectrum of G is  0.6695


--------------------------------------------------------------------------------------------------------


    WAVPRE:  cpu time    0.0233: real time    0.0264
    FEWALD:  cpu time    0.0023: real time    0.0027
    GENKIN:  cpu time    0.2008: real time    0.2008
    ORTHCH:  cpu time    2.9291: real time    2.9290
     LOOP+:  cpu time  209.7220: real time  209.8956


--------------------------------------- Iteration     22(   1)  ---------------------------------------


    POTLOK:  cpu time    0.0622: real time    0.0658
    SETDIJ:  cpu time    0.0094: real time    0.0094
     EDDAV:  cpu time   35.1020: real time   35.0992
 BZINTS: Fermi energy:  2.601558;464.000000 electrons
         Band energy:***********;  BLOECHL correction:  0.000000
       DOS:  cpu time    0.0102: real time    0.0101
    CHARGE:  cpu time    0.9859: real time    0.9858
    MIXING:  cpu time    0.0009: real time    0.0009
    --------------------------------------------
      LOOP:  cpu time   36.1706: real time   36.1714

 eigenvalue-minimisations  : 28296
 total energy-change (2. order) :-0.4665744E-05  (-0.3464891E-04)
 number of electron     463.9999979 magnetization 
 augmentation part       44.6645955 magnetization 

  free energy =  -0.679804744821E+03  energy without entropy=  -0.679804744821E+03


--------------------------------------------------------------------------------------------------------




--------------------------------------- Iteration     22(   2)  ---------------------------------------


    POTLOK:  cpu time    0.0461: real time    0.0586
    SETDIJ:  cpu time    0.0095: real time    0.0098
    EDDIAG:  cpu time    3.9690: real time    3.9686
  RMM-DIIS:  cpu time   10.3415: real time   10.3405
    ORTHCH:  cpu time    0.5565: real time    0.5565
 BZINTS: Fermi energy:  2.599284;464.000000 electrons
         Band energy:***********;  BLOECHL correction:  0.000000
       DOS:  cpu time    0.0098: real time    0.0098
    CHARGE:  cpu time    0.9862: real time    0.9860
    MIXING:  cpu time    0.0010: real time    0.0010
    --------------------------------------------
      LOOP:  cpu time   15.9195: real time   15.9307

 eigenvalue-minimisations  : 19458
 total energy-change (2. order) :-0.6319169E-06  (-0.7473262E-06)
 number of electron     463.9999979 magnetization 
 augmentation part       44.6645862 magnetization 

 eigenvalues of (default mixing * dielectric matrix)
  average eigenvalue GAMMA=   1.1336
  1.1336

  free energy =  -0.679804745453E+03  energy without entropy=  -0.679804745453E+03


--------------------------------------------------------------------------------------------------------




--------------------------------------- Iteration     22(   3)  ---------------------------------------


    POTLOK:  cpu time    0.0500: real time    0.0569
    SETDIJ:  cpu time    0.0093: real time    0.0093
    EDDIAG:  cpu time    3.9553: real time    3.9551
  RMM-DIIS:  cpu time    7.6130: real time    7.6124
    ORTHCH:  cpu time    0.5582: real time    0.5581
 BZINTS: Fermi energy:  2.599348;464.000000 electrons
         Band energy:***********;  BLOECHL correction:  0.000000
       DOS:  cpu time    0.0098: real time    0.0098
    CHARGE:  cpu time    0.9852: real time    0.9851
    MIXING:  cpu time    0.0011: real time    0.0011
    --------------------------------------------
      LOOP:  cpu time   13.1819: real time   13.1878

 eigenvalue-minimisations  : 10657
 total energy-change (2. order) : 0.2543675E-07  (-0.3784363E-07)
 number of electron     463.9999979 magnetization 
 augmentation part       44.6645791 magnetization 

 eigenvalues of (default mixing * dielectric matrix)
  average eigenvalue GAMMA=   1.4638
  1.1547  1.7729

  free energy =  -0.679804745428E+03  energy without entropy=  -0.679804745428E+03


--------------------------------------------------------------------------------------------------------




--------------------------------------- Iteration     22(   4)  ---------------------------------------


    POTLOK:  cpu time    0.0456: real time    0.0587
    SETDIJ:  cpu time    0.0094: real time    0.0098
    EDDIAG:  cpu time    3.9536: real time    3.9532
  RMM-DIIS:  cpu time    7.6137: real time    7.6132
    ORTHCH:  cpu time    0.5579: real time    0.5579
 BZINTS: Fermi energy:  2.599183;464.000000 electrons
         Band energy:***********;  BLOECHL correction:  0.000000
       DOS:  cpu time    0.0099: real time    0.0099
    --------------------------------------------
      LOOP:  cpu time   12.1901: real time   12.2026

 eigenvalue-minimisations  : 10657
 total energy-change (2. order) :-0.1805893E-07  (-0.1819907E-07)
 number of electron     463.9999979 magnetization 
 augmentation part       44.6645791 magnetization 

  free energy =  -0.679804745446E+03  energy without entropy=  -0.679804745446E+03


--------------------------------------------------------------------------------------------------------




------------------------ aborting loop because EDIFF is reached ----------------------------------------


    CHARGE:  cpu time    0.9850: real time    0.9849
    FORLOC:  cpu time    0.0159: real time    0.0159
    FORNL :  cpu time    7.4965: real time    7.4961
    STRESS:  cpu time   21.9517: real time   21.9500
    FORCOR:  cpu time    0.0492: real time    0.0492
    FORHAR:  cpu time    0.0225: real time    0.0225
    MIXING:  cpu time    0.0010: real time    0.0010
    OFIELD:  cpu time    0.0000: real time    0.0000

  FORCE on cell =-STRESS in cart. coord.  units (eV):
  Direction    XX          YY          ZZ          XY          YZ          ZX
  --------------------------------------------------------------------------------------
  Alpha Z  1562.80006  1562.80006  1562.80006
  Ewald   -8654.47365 -8585.45718 -8861.35428    46.97594   -36.62297    89.62004
  Hartree  3769.78840  3836.34805  3871.75534    40.78137   -34.96657    81.75097
  E(xc)   -2179.97479 -2179.99233 -2177.77658     0.08861    -0.02098     0.01403
  Local   -2959.84082 -3095.34755 -2859.29141   -88.02402    71.62589  -171.53001
  n-local -1210.00493 -1209.83701 -1197.07180    -0.60433     0.05117    -0.33005
  augment   515.84474   515.81493   512.01783     0.08494    -0.00921     0.03050
  Kinetic  9126.84596  9126.65366  9119.94951     0.68993    -0.05161     0.44307
  Fock        0.00000     0.00000     0.00000     0.00000     0.00000     0.00000
  -------------------------------------------------------------------------------------
  Total     -29.01503   -29.01738   -28.97133    -0.00756     0.00571    -0.00144
  in kB     -52.79665   -52.80092   -52.71712    -0.01375     0.01040    -0.00262
  external pressure =      -52.77 kB  Pullay stress =        0.00 kB



--------------------------------------------------------------------------------------------------------



  FREE ENERGIE OF THE ION-ELECTRON SYSTEM (eV)
  ---------------------------------------------------
  free  energy   TOTEN  =      -679.80474545 eV

  energy  without entropy=     -679.80474545  energy(sigma->0) =     -679.80474545
 
 d Force = 0.5961982E-05[ 0.572E-05, 0.621E-05]  d Energy = 0.4827860E-05 0.113E-05
 d Force = 0.2847528E-01[ 0.285E-01, 0.285E-01]  d Ewald  = 0.2697315E-01 0.150E-02


--------------------------------------------------------------------------------------------------------


    POTLOK:  cpu time    0.0548: real time    0.0552


--------------------------------------------------------------------------------------------------------


 Quasi-Newton relaxation of ions (Broydens 2nd method)
  g(Force)  = 0.556E-05   g(Stress)= 0.277E-06

 retain information from N=  1 steps
 eigenvalues of (default step * inverse Hessian matrix)
  average eigenvalue of G=   5.5990
 eigenvalue spectrum of G is  5.5990


--------------------------------------------------------------------------------------------------------


  
 reached required accuracy - stopping structural energy minimisation
     LOOP+:  cpu time  108.1028: real time  108.1530
    4ORBIT:  cpu time    0.0000: real time    0.0000

 total amount of memory used by VASP MPI-rank0   176851. kBytes
=======================================================================

   base      :      30000. kBytes
   nonlr-proj:      65267. kBytes
   fftplans  :       4575. kBytes
   grid      :      26165. kBytes
   one-center:       1244. kBytes
   wavefun   :      49600. kBytes
 
  
  
 General timing and accounting informations for this job:
 ========================================================
  
                  Total CPU time used (sec):     4713.838
                            User time (sec):     4640.913
                          System time (sec):       72.925
                         Elapsed time (sec):     4718.051
  
                   Maximum memory used (kb):      418972.
                   Average memory used (kb):           0.
  
                          Minor page faults:     15202899
                          Major page faults:            0
                 Voluntary context switches:        54108
