<?xml version="1.0" encoding="ISO-8859-1"?>
<modeling>
 <generator>
  <i name="program" type="string">vasp </i>
  <i name="version" type="string">5.4.4.18Apr17-6-g9f103f2a35  </i>
  <i name="subversion" type="string">(build Mar 05 2020 17:21:05) complex            parallel </i>
  <i name="platform" type="string">Linux justhpc1_p2018-05-16 </i>
  <i name="date" type="string">2024 04 10 </i>
  <i name="time" type="string">19:58:29 </i>
 </generator>
 <incar>
  <i type="string" name="SYSTEM"> Li(NbTa)O_3</i>
  <i type="int" name="ISTART">     0</i>
  <i type="string" name="PREC">accurate</i>
  <i type="string" name="ALGO">  Fast</i>
  <i name="AMIX">      0.40000000</i>
  <i name="AMIN">      0.10000000</i>
  <i type="int" name="ICHARG">     2</i>
  <i type="int" name="INIWAV">     1</i>
  <i type="int" name="NELM">  1000</i>
  <i type="int" name="NELMIN">     4</i>
  <i type="int" name="IBRION">     1</i>
  <i name="EDIFF">      0.00000100</i>
  <i name="EDIFFG">     -0.00500000</i>
  <i type="int" name="NSW">   200</i>
  <i type="int" name="ISIF">     4</i>
  <i name="ENCUT">    475.00000000</i>
  <i name="POTIM">      0.15000000</i>
  <i type="string" name="LREAL">    A</i>
  <i type="int" name="ISMEAR">    -5</i>
  <i name="SIGMA">      0.05000000</i>
  <i type="int" name="NWRITE">     0</i>
  <i type="logical" name="LWAVE"> F  </i>
  <i type="logical" name="LCHARG"> F  </i>
  <i type="logical" name="LVTOT"> F  </i>
  <i type="logical" name="LVHAR"> F  </i>
  <i type="logical" name="LELF"> F  </i>
  <v type="int" name="KPOINT_BSE">    -1     0     0     0</v>
  <i type="int" name="NELM">  1000</i>
  <i type="string" name="GGA"> PS</i>
 </incar>
 <structure name="primitive_cell" >
  <crystal>
   <varray name="basis" >
    <v>       5.21774626      -3.01085075       9.34214817 </v>
    <v>       0.00250516       6.02330919       9.34127424 </v>
    <v>      -5.21510529      -3.01221869       9.34023956 </v>
   </varray>
   <i name="volume">    880.49580369 </i>
   <varray name="rec_basis" >
    <v>       0.09585180      -0.05535418       0.03566700 </v>
    <v>      -0.00002104       0.11068228       0.03568319 </v>
    <v>      -0.09585035      -0.05532905       0.03570220 </v>
   </varray>
  </crystal>
  <varray name="positions" >
   <v>       0.13834752       0.13936271       0.13984335 </v>
   <v>       0.30515946       0.11079423      -0.06809337 </v>
   <v>       0.11018018      -0.06879723       0.30647725 </v>
   <v>      -0.06905013       0.30643726       0.10970186 </v>
   <v>       0.05623360       0.18120304       0.36059596 </v>
   <v>       0.18067803       0.36043515       0.05635112 </v>
   <v>       0.36055215       0.05618073       0.18135900 </v>
   <v>       0.24862253       0.24992729       0.24762435 </v>
   <v>      -0.00061676       0.00003493       0.49763958 </v>
   <v>      -0.00250010       0.49794372       0.00086033 </v>
   <v>       0.49988249      -0.00261528       0.00090131 </v>
   <v>      -0.19337261       0.10979363       0.43135599 </v>
   <v>       0.43096027      -0.19329050       0.10983535 </v>
   <v>       0.11066152       0.43074915      -0.19460356 </v>
   <v>       0.25168038       0.24891337      -0.25040483 </v>
   <v>      -0.25269028       0.24776208       0.24918815 </v>
   <v>       0.24806756      -0.25193469       0.24849505 </v>
   <v>      -0.13900432       0.05588109       0.18065345 </v>
   <v>       0.18040413      -0.13909628       0.05629587 </v>
   <v>       0.05540035       0.18155956      -0.13965962 </v>
   <v>      -0.10895576       0.39188824      -0.11006009 </v>
   <v>       0.39066873      -0.10877522      -0.10982588 </v>
   <v>      -0.11047756      -0.10980384       0.39154151 </v>
   <v>       0.38998511      -0.10977024       0.39046082 </v>
   <v>      -0.10918121       0.39199278       0.39127564 </v>
   <v>       0.39173469       0.39088444      -0.10940012 </v>
   <v>      -0.00040763       0.00150112      -0.00324828 </v>
   <v>      -0.13992542      -0.44365171       0.18046819 </v>
   <v>       0.18050111      -0.13926661      -0.44374241 </v>
   <v>      -0.44374507       0.18016866      -0.13917796 </v>
   <v>       0.10933811       0.43208088       0.30572184 </v>
   <v>       0.30616879       0.11038237       0.43144631 </v>
   <v>       0.43164615       0.30579781       0.11007695 </v>
   <v>      -0.06861027      -0.19460936      -0.38915746 </v>
   <v>      -0.19415364      -0.38916703      -0.06990609 </v>
   <v>      -0.38975637      -0.06865989      -0.19428568 </v>
   <v>       0.35943918       0.05639020      -0.31796545 </v>
   <v>      -0.31905839       0.36072792       0.05606070 </v>
   <v>       0.05604537      -0.31923144       0.36081137 </v>
   <v>      -0.38984081       0.43137998       0.30635721 </v>
   <v>       0.43176800       0.30520898      -0.38895871 </v>
   <v>       0.30631393      -0.39036548       0.43142758 </v>
   <v>      -0.13939540       0.05601788      -0.31945939 </v>
   <v>       0.05642617      -0.32016891      -0.13927708 </v>
   <v>      -0.31892800      -0.13953226       0.05575260 </v>
   <v>      -0.44445923      -0.31816567       0.36007734 </v>
   <v>      -0.31943661       0.36084158      -0.44373941 </v>
   <v>       0.36082901      -0.44378709      -0.31960064 </v>
   <v>      -0.35955392       0.13979598      -0.36104116 </v>
   <v>      -0.36012932      -0.35949036       0.14005521 </v>
   <v>       0.14027342      -0.36143308      -0.36057710 </v>
   <v>      -0.44331040       0.18089021       0.36049958 </v>
   <v>       0.36061507      -0.44381848       0.18081868 </v>
   <v>       0.18159346       0.36067916      -0.44443328 </v>
   <v>      -0.06871227       0.30623948      -0.39020555 </v>
   <v>       0.30592914      -0.39026941      -0.06842438 </v>
   <v>      -0.38932248      -0.06834703       0.30547765 </v>
   <v>       0.14028321       0.14032414      -0.35907876 </v>
   <v>      -0.36031050       0.14081636       0.13851063 </v>
   <v>       0.14005761      -0.36085585       0.13990376 </v>
   <v>      -0.19376884       0.10929440      -0.06852055 </v>
   <v>       0.10974163      -0.06923313      -0.19337096 </v>
   <v>      -0.06863886      -0.19507418       0.11095065 </v>
   <v>      -0.31902069      -0.14027494      -0.44344507 </v>
   <v>      -0.13940492      -0.44418373      -0.31949283 </v>
   <v>      -0.44443032      -0.31917978      -0.13909459 </v>
   <v>      -0.19496216      -0.38925698       0.43111591 </v>
   <v>       0.43105925      -0.19361902      -0.39007314 </v>
   <v>      -0.38991387       0.43101265      -0.19363503 </v>
   <v>       0.24752603      -0.25254119      -0.25065840 </v>
   <v>      -0.25165012       0.24827406      -0.25167126 </v>
   <v>       0.49985523      -0.49870242       0.49655071 </v>
   <v>      -0.24902685      -0.25057531       0.24984287 </v>
   <v>       0.49682629      -0.00232810      -0.49984566 </v>
   <v>       0.00052440       0.49715140      -0.49911933 </v>
   <v>       0.49954620      -0.49996032      -0.00214243 </v>
   <v>      -0.25059786      -0.24904122      -0.25197652 </v>
   <v>       0.39146324       0.38999630       0.39085144 </v>
   <v>      -0.10896892      -0.10923924      -0.10865368 </v>
   <v>      -0.35904566      -0.35991442      -0.35855301 </v>
  </varray>
 </structure>
 <varray name="primitive_index" >
  <v type="int" >        1 </v>
  <v type="int" >       38 </v>
  <v type="int" >       43 </v>
  <v type="int" >       54 </v>
  <v type="int" >       27 </v>
  <v type="int" >       29 </v>
  <v type="int" >       28 </v>
  <v type="int" >       75 </v>
  <v type="int" >       18 </v>
  <v type="int" >       20 </v>
  <v type="int" >       22 </v>
  <v type="int" >       56 </v>
  <v type="int" >       42 </v>
  <v type="int" >       37 </v>
  <v type="int" >       19 </v>
  <v type="int" >       78 </v>
  <v type="int" >       76 </v>
  <v type="int" >       52 </v>
  <v type="int" >       41 </v>
  <v type="int" >       33 </v>
  <v type="int" >       12 </v>
  <v type="int" >        8 </v>
  <v type="int" >       14 </v>
  <v type="int" >        6 </v>
  <v type="int" >       10 </v>
  <v type="int" >        4 </v>
  <v type="int" >       17 </v>
  <v type="int" >       64 </v>
  <v type="int" >       47 </v>
  <v type="int" >       57 </v>
  <v type="int" >       31 </v>
  <v type="int" >       32 </v>
  <v type="int" >       30 </v>
  <v type="int" >       72 </v>
  <v type="int" >       74 </v>
  <v type="int" >       73 </v>
  <v type="int" >       34 </v>
  <v type="int" >       53 </v>
  <v type="int" >       39 </v>
  <v type="int" >       55 </v>
  <v type="int" >       36 </v>
  <v type="int" >       44 </v>
  <v type="int" >       58 </v>
  <v type="int" >       45 </v>
  <v type="int" >       65 </v>
  <v type="int" >       63 </v>
  <v type="int" >       59 </v>
  <v type="int" >       46 </v>
  <v type="int" >       11 </v>
  <v type="int" >       13 </v>
  <v type="int" >        7 </v>
  <v type="int" >       51 </v>
  <v type="int" >       40 </v>
  <v type="int" >       35 </v>
  <v type="int" >       60 </v>
  <v type="int" >       50 </v>
  <v type="int" >       67 </v>
  <v type="int" >        3 </v>
  <v type="int" >        9 </v>
  <v type="int" >        5 </v>
  <v type="int" >       62 </v>
  <v type="int" >       49 </v>
  <v type="int" >       66 </v>
  <v type="int" >       71 </v>
  <v type="int" >       70 </v>
  <v type="int" >       69 </v>
  <v type="int" >       68 </v>
  <v type="int" >       48 </v>
  <v type="int" >       61 </v>
  <v type="int" >       77 </v>
  <v type="int" >       80 </v>
  <v type="int" >       25 </v>
  <v type="int" >       24 </v>
  <v type="int" >       79 </v>
  <v type="int" >       21 </v>
  <v type="int" >       23 </v>
  <v type="int" >       26 </v>
  <v type="int" >        2 </v>
  <v type="int" >       16 </v>
  <v type="int" >       15 </v>
 </varray>
 <kpoints>
  <generation param="Gamma">
   <v type="int" name="divisions">       4        4        4 </v>
   <v name="usershift">      0.00000000       0.00000000       0.00000000 </v>
   <v name="genvec1">      0.25000000      -0.00000000       0.00000000 </v>
   <v name="genvec2">      0.00000000       0.25000000       0.00000000 </v>
   <v name="genvec3">      0.00000000       0.00000000       0.25000000 </v>
   <v name="shift">      0.00000000       0.00000000       0.00000000 </v>
  </generation>
  <varray name="kpointlist" >
   <v>       0.00000000       0.00000000       0.00000000 </v>
   <v>       0.25000000       0.00000000       0.00000000 </v>
   <v>       0.50000000       0.00000000       0.00000000 </v>
   <v>       0.00000000       0.25000000       0.00000000 </v>
   <v>       0.25000000       0.25000000       0.00000000 </v>
   <v>       0.50000000       0.25000000       0.00000000 </v>
   <v>      -0.25000000       0.25000000       0.00000000 </v>
   <v>       0.00000000       0.50000000       0.00000000 </v>
   <v>       0.25000000       0.50000000       0.00000000 </v>
   <v>       0.50000000       0.50000000       0.00000000 </v>
   <v>       0.00000000       0.00000000       0.25000000 </v>
   <v>       0.25000000       0.00000000       0.25000000 </v>
   <v>       0.50000000      -0.00000000       0.25000000 </v>
   <v>      -0.25000000       0.00000000       0.25000000 </v>
   <v>      -0.00000000       0.25000000       0.25000000 </v>
   <v>       0.25000000       0.25000000       0.25000000 </v>
   <v>       0.50000000       0.25000000       0.25000000 </v>
   <v>      -0.25000000       0.25000000       0.25000000 </v>
   <v>      -0.00000000       0.50000000       0.25000000 </v>
   <v>       0.25000000       0.50000000       0.25000000 </v>
   <v>       0.50000000       0.50000000       0.25000000 </v>
   <v>      -0.25000000       0.50000000       0.25000000 </v>
   <v>       0.00000000      -0.25000000       0.25000000 </v>
   <v>       0.25000000      -0.25000000       0.25000000 </v>
   <v>       0.50000000      -0.25000000       0.25000000 </v>
   <v>      -0.25000000      -0.25000000       0.25000000 </v>
   <v>       0.00000000       0.00000000       0.50000000 </v>
   <v>       0.25000000       0.00000000       0.50000000 </v>
   <v>       0.50000000       0.00000000       0.50000000 </v>
   <v>      -0.00000000       0.25000000       0.50000000 </v>
   <v>       0.25000000       0.25000000       0.50000000 </v>
   <v>       0.50000000       0.25000000       0.50000000 </v>
   <v>      -0.25000000       0.25000000       0.50000000 </v>
   <v>      -0.00000000       0.50000000       0.50000000 </v>
   <v>       0.25000000       0.50000000       0.50000000 </v>
   <v>       0.50000000       0.50000000       0.50000000 </v>
  </varray>
  <varray name="weights" >
   <v>       0.01562500 </v>
   <v>       0.03125000 </v>
   <v>       0.01562500 </v>
   <v>       0.03125000 </v>
   <v>       0.03125000 </v>
   <v>       0.03125000 </v>
   <v>       0.03125000 </v>
   <v>       0.01562500 </v>
   <v>       0.03125000 </v>
   <v>       0.01562500 </v>
   <v>       0.03125000 </v>
   <v>       0.03125000 </v>
   <v>       0.03125000 </v>
   <v>       0.03125000 </v>
   <v>       0.03125000 </v>
   <v>       0.03125000 </v>
   <v>       0.03125000 </v>
   <v>       0.03125000 </v>
   <v>       0.03125000 </v>
   <v>       0.03125000 </v>
   <v>       0.03125000 </v>
   <v>       0.03125000 </v>
   <v>       0.03125000 </v>
   <v>       0.03125000 </v>
   <v>       0.03125000 </v>
   <v>       0.03125000 </v>
   <v>       0.01562500 </v>
   <v>       0.03125000 </v>
   <v>       0.01562500 </v>
   <v>       0.03125000 </v>
   <v>       0.03125000 </v>
   <v>       0.03125000 </v>
   <v>       0.03125000 </v>
   <v>       0.01562500 </v>
   <v>       0.03125000 </v>
   <v>       0.01562500 </v>
  </varray>
  <varray name="tetrahedronlist"  type="int" >
   <v type="int" >        2        1        4        5       16 </v>
   <v type="int" >        2        1        2        5       16 </v>
   <v type="int" >        2        1        2       12       16 </v>
   <v type="int" >        2        1        4       15       16 </v>
   <v type="int" >        2        1       11       15       16 </v>
   <v type="int" >        2        1       11       12       16 </v>
   <v type="int" >        2        2        5        6       17 </v>
   <v type="int" >        2        2        3        6       17 </v>
   <v type="int" >        2        2        3       13       17 </v>
   <v type="int" >        2        2        5       16       17 </v>
   <v type="int" >        2        2       12       16       17 </v>
   <v type="int" >        2        2       12       13       17 </v>
   <v type="int" >        2        3        6        7       18 </v>
   <v type="int" >        2        2        3        7       18 </v>
   <v type="int" >        2        2        3       14       18 </v>
   <v type="int" >        2        3        6       17       18 </v>
   <v type="int" >        2        3       13       17       18 </v>
   <v type="int" >        2        3       13       14       18 </v>
   <v type="int" >        2        2        4        7       15 </v>
   <v type="int" >        2        1        2        4       15 </v>
   <v type="int" >        2        1        2       11       15 </v>
   <v type="int" >        2        2        7       15       18 </v>
   <v type="int" >        2        2       14       15       18 </v>
   <v type="int" >        2        2       11       14       15 </v>
   <v type="int" >        2        4        8        9       20 </v>
   <v type="int" >        2        4        5        9       20 </v>
   <v type="int" >        2        4        5       16       20 </v>
   <v type="int" >        2        4        8       19       20 </v>
   <v type="int" >        2        4       15       19       20 </v>
   <v type="int" >        2        4       15       16       20 </v>
   <v type="int" >        2        5        9       10       21 </v>
   <v type="int" >        2        5        6       10       21 </v>
   <v type="int" >        2        5        6       17       21 </v>
   <v type="int" >        2        5        9       20       21 </v>
   <v type="int" >        2        5       16       20       21 </v>
   <v type="int" >        2        5       16       17       21 </v>
   <v type="int" >        2        6        9       10       22 </v>
   <v type="int" >        2        6        7        9       22 </v>
   <v type="int" >        2        6        7       18       22 </v>
   <v type="int" >        2        6       10       21       22 </v>
   <v type="int" >        2        6       17       21       22 </v>
   <v type="int" >        2        6       17       18       22 </v>
   <v type="int" >        2        7        8        9       19 </v>
   <v type="int" >        2        4        7        8       19 </v>
   <v type="int" >        2        4        7       15       19 </v>
   <v type="int" >        2        7        9       19       22 </v>
   <v type="int" >        2        7       18       19       22 </v>
   <v type="int" >        2        7       15       18       19 </v>
   <v type="int" >        2        4        7        8       24 </v>
   <v type="int" >        2        7        8        9       24 </v>
   <v type="int" >        2        8        9       20       24 </v>
   <v type="int" >        2        4        8       23       24 </v>
   <v type="int" >        2        8       19       23       24 </v>
   <v type="int" >        2        8       19       20       24 </v>
   <v type="int" >        2        6        7        9       25 </v>
   <v type="int" >        2        6        9       10       25 </v>
   <v type="int" >        2        9       10       21       25 </v>
   <v type="int" >        2        7        9       24       25 </v>
   <v type="int" >        2        9       20       24       25 </v>
   <v type="int" >        2        9       20       21       25 </v>
   <v type="int" >        2        5        6       10       26 </v>
   <v type="int" >        2        5        9       10       26 </v>
   <v type="int" >        2        9       10       22       26 </v>
   <v type="int" >        2        6       10       25       26 </v>
   <v type="int" >        2       10       21       25       26 </v>
   <v type="int" >        2       10       21       22       26 </v>
   <v type="int" >        2        4        5        9       23 </v>
   <v type="int" >        2        4        8        9       23 </v>
   <v type="int" >        2        8        9       19       23 </v>
   <v type="int" >        2        5        9       23       26 </v>
   <v type="int" >        2        9       22       23       26 </v>
   <v type="int" >        2        9       19       22       23 </v>
   <v type="int" >        2        1        2        4       12 </v>
   <v type="int" >        2        2        4        7       12 </v>
   <v type="int" >        2        4        7       12       24 </v>
   <v type="int" >        2        1        4       11       12 </v>
   <v type="int" >        2        4       11       12       23 </v>
   <v type="int" >        2        4       12       23       24 </v>
   <v type="int" >        2        2        3        7       13 </v>
   <v type="int" >        2        3        6        7       13 </v>
   <v type="int" >        2        6        7       13       25 </v>
   <v type="int" >        2        2        7       12       13 </v>
   <v type="int" >        2        7       12       13       24 </v>
   <v type="int" >        2        7       13       24       25 </v>
   <v type="int" >        2        2        3        6       14 </v>
   <v type="int" >        2        2        5        6       14 </v>
   <v type="int" >        2        5        6       14       26 </v>
   <v type="int" >        2        3        6       13       14 </v>
   <v type="int" >        2        6       13       14       25 </v>
   <v type="int" >        2        6       14       25       26 </v>
   <v type="int" >        2        1        2        5       11 </v>
   <v type="int" >        2        1        4        5       11 </v>
   <v type="int" >        2        4        5       11       23 </v>
   <v type="int" >        2        2        5       11       14 </v>
   <v type="int" >        2        5       11       14       26 </v>
   <v type="int" >        2        5       11       23       26 </v>
   <v type="int" >        2       11       15       16       31 </v>
   <v type="int" >        2       11       12       16       31 </v>
   <v type="int" >        2       11       12       28       31 </v>
   <v type="int" >        2       11       15       30       31 </v>
   <v type="int" >        2       11       27       30       31 </v>
   <v type="int" >        2       11       27       28       31 </v>
   <v type="int" >        2       12       16       17       32 </v>
   <v type="int" >        2       12       13       17       32 </v>
   <v type="int" >        2       12       13       29       32 </v>
   <v type="int" >        2       12       16       31       32 </v>
   <v type="int" >        2       12       28       31       32 </v>
   <v type="int" >        2       12       28       29       32 </v>
   <v type="int" >        2       13       17       18       33 </v>
   <v type="int" >        2       13       14       18       33 </v>
   <v type="int" >        2       13       14       28       33 </v>
   <v type="int" >        2       13       17       32       33 </v>
   <v type="int" >        2       13       29       32       33 </v>
   <v type="int" >        2       13       28       29       33 </v>
   <v type="int" >        2       14       15       18       30 </v>
   <v type="int" >        2       11       14       15       30 </v>
   <v type="int" >        2       11       14       27       30 </v>
   <v type="int" >        2       14       18       30       33 </v>
   <v type="int" >        2       14       28       30       33 </v>
   <v type="int" >        2       14       27       28       30 </v>
   <v type="int" >        2       15       19       20       35 </v>
   <v type="int" >        2       15       16       20       35 </v>
   <v type="int" >        2       15       16       31       35 </v>
   <v type="int" >        2       15       19       34       35 </v>
   <v type="int" >        2       15       30       34       35 </v>
   <v type="int" >        2       15       30       31       35 </v>
   <v type="int" >        2       16       20       21       36 </v>
   <v type="int" >        2       16       17       21       36 </v>
   <v type="int" >        2       16       17       32       36 </v>
   <v type="int" >        2       16       20       35       36 </v>
   <v type="int" >        2       16       31       35       36 </v>
   <v type="int" >        2       16       31       32       36 </v>
   <v type="int" >        2       17       21       22       35 </v>
   <v type="int" >        2       17       18       22       35 </v>
   <v type="int" >        2       17       18       33       35 </v>
   <v type="int" >        2       17       21       35       36 </v>
   <v type="int" >        2       17       32       35       36 </v>
   <v type="int" >        2       17       32       33       35 </v>
   <v type="int" >        2       18       19       22       34 </v>
   <v type="int" >        2       15       18       19       34 </v>
   <v type="int" >        2       15       18       30       34 </v>
   <v type="int" >        2       18       22       34       35 </v>
   <v type="int" >        2       18       33       34       35 </v>
   <v type="int" >        2       18       30       33       34 </v>
   <v type="int" >        2       19       23       24       33 </v>
   <v type="int" >        2       19       20       24       33 </v>
   <v type="int" >        2       19       20       33       35 </v>
   <v type="int" >        2       19       23       30       33 </v>
   <v type="int" >        2       19       30       33       34 </v>
   <v type="int" >        2       19       33       34       35 </v>
   <v type="int" >        2       20       24       25       32 </v>
   <v type="int" >        2       20       21       25       32 </v>
   <v type="int" >        2       20       21       32       36 </v>
   <v type="int" >        2       20       24       32       33 </v>
   <v type="int" >        2       20       32       33       35 </v>
   <v type="int" >        2       20       32       35       36 </v>
   <v type="int" >        2       21       25       26       31 </v>
   <v type="int" >        2       21       22       26       31 </v>
   <v type="int" >        2       21       22       31       35 </v>
   <v type="int" >        2       21       25       31       32 </v>
   <v type="int" >        2       21       31       32       36 </v>
   <v type="int" >        2       21       31       35       36 </v>
   <v type="int" >        2       22       23       26       30 </v>
   <v type="int" >        2       19       22       23       30 </v>
   <v type="int" >        2       19       22       30       34 </v>
   <v type="int" >        2       22       26       30       31 </v>
   <v type="int" >        2       22       30       31       35 </v>
   <v type="int" >        2       22       30       34       35 </v>
   <v type="int" >        2       11       12       23       28 </v>
   <v type="int" >        2       12       23       24       28 </v>
   <v type="int" >        2       23       24       28       33 </v>
   <v type="int" >        2       11       23       27       28 </v>
   <v type="int" >        2       23       27       28       30 </v>
   <v type="int" >        2       23       28       30       33 </v>
   <v type="int" >        2       12       13       24       29 </v>
   <v type="int" >        2       13       24       25       29 </v>
   <v type="int" >        2       24       25       29       32 </v>
   <v type="int" >        2       12       24       28       29 </v>
   <v type="int" >        2       24       28       29       33 </v>
   <v type="int" >        2       24       29       32       33 </v>
   <v type="int" >        2       13       14       25       28 </v>
   <v type="int" >        2       14       25       26       28 </v>
   <v type="int" >        2       25       26       28       31 </v>
   <v type="int" >        2       13       25       28       29 </v>
   <v type="int" >        2       25       28       29       32 </v>
   <v type="int" >        2       25       28       31       32 </v>
   <v type="int" >        2       11       14       26       27 </v>
   <v type="int" >        2       11       23       26       27 </v>
   <v type="int" >        2       23       26       27       30 </v>
   <v type="int" >        2       14       26       27       28 </v>
   <v type="int" >        2       26       27       28       31 </v>
   <v type="int" >        2       26       27       30       31 </v>
  </varray>
  <i name="volumeweight">      0.00260417 </i>
 </kpoints>
 <parameters>
  <separator name="general" >
   <i type="string" name="SYSTEM">Li(NbTa)O_3</i>
   <i type="logical" name="LCOMPAT"> F  </i>
  </separator>
  <separator name="electronic" >
   <i type="string" name="PREC">accura</i>
   <i name="ENMAX">    475.00000000</i>
   <i name="ENAUG">    605.39200000</i>
   <i name="EDIFF">      0.00000100</i>
   <i type="int" name="IALGO">    68</i>
   <i type="int" name="IWAVPR">    11</i>
   <i type="int" name="NBANDS">   288</i>
   <i name="NELECT">    464.00000000</i>
   <i type="int" name="TURBO">     0</i>
   <i type="int" name="IRESTART">     0</i>
   <i type="int" name="NREBOOT">     0</i>
   <i type="int" name="NMIN">     0</i>
   <i name="EREF">      0.00000000</i>
   <separator name="electronic smearing" >
    <i type="int" name="ISMEAR">    -5</i>
    <i name="SIGMA">      0.05000000</i>
    <i name="KSPACING">      0.50000000</i>
    <i type="logical" name="KGAMMA"> T  </i>
   </separator>
   <separator name="electronic projectors" >
    <i type="logical" name="LREAL"> T  </i>
    <v name="ROPT">     -0.00025000     -0.00025000     -0.00025000     -0.00025000</v>
    <i type="int" name="LMAXPAW">  -100</i>
    <i type="int" name="LMAXMIX">     2</i>
    <i type="logical" name="NLSPLINE"> F  </i>
   </separator>
   <separator name="electronic startup" >
    <i type="int" name="ISTART">     0</i>
    <i type="int" name="ICHARG">     2</i>
    <i type="int" name="INIWAV">     1</i>
   </separator>
   <separator name="electronic spin" >
    <i type="int" name="ISPIN">     1</i>
    <i type="logical" name="LNONCOLLINEAR"> F  </i>
    <v name="MAGMOM">      1.00000000      1.00000000      1.00000000      1.00000000      1.00000000      1.00000000      1.00000000      1.00000000      1.00000000      1.00000000      1.00000000      1.00000000      1.00000000      1.00000000      1.00000000      1.00000000      1.00000000      1.00000000      1.00000000      1.00000000
      1.00000000      1.00000000      1.00000000      1.00000000      1.00000000      1.00000000      1.00000000      1.00000000      1.00000000      1.00000000      1.00000000      1.00000000      1.00000000      1.00000000      1.00000000      1.00000000      1.00000000      1.00000000      1.00000000      1.00000000
      1.00000000      1.00000000      1.00000000      1.00000000      1.00000000      1.00000000      1.00000000      1.00000000      1.00000000      1.00000000      1.00000000      1.00000000      1.00000000      1.00000000      1.00000000      1.00000000      1.00000000      1.00000000      1.00000000      1.00000000
      1.00000000      1.00000000      1.00000000      1.00000000      1.00000000      1.00000000      1.00000000      1.00000000      1.00000000      1.00000000      1.00000000      1.00000000      1.00000000      1.00000000      1.00000000      1.00000000      1.00000000      1.00000000      1.00000000      1.00000000
</v>
    <i name="NUPDOWN">     -1.00000000</i>
    <i type="logical" name="LSORBIT"> F  </i>
    <v name="SAXIS">      0.00000000      0.00000000      1.00000000</v>
    <i type="logical" name="LSPIRAL"> F  </i>
    <v name="QSPIRAL">      0.00000000      0.00000000      0.00000000</v>
    <i type="logical" name="LZEROZ"> F  </i>
   </separator>
   <separator name="electronic exchange-correlation" >
    <i type="logical" name="LASPH"> F  </i>
    <i type="logical" name="LMETAGGA"> F  </i>
   </separator>
   <separator name="electronic convergence" >
    <i type="int" name="NELM">  1000</i>
    <i type="int" name="NELMDL">    -5</i>
    <i type="int" name="NELMIN">     4</i>
    <i name="ENINI">    475.00000000</i>
    <separator name="electronic convergence detail" >
     <i type="logical" name="LDIAG"> T  </i>
     <i type="logical" name="LSUBROT"> F  </i>
     <i name="WEIMIN">      0.00100000</i>
     <i name="EBREAK">      0.00000000</i>
     <i name="DEPER">      0.30000000</i>
     <i type="int" name="NRMM">     4</i>
     <i name="TIME">      0.40000000</i>
    </separator>
   </separator>
   <separator name="electronic mixer" >
    <i name="AMIX">      0.40000000</i>
    <i name="BMIX">      1.00000000</i>
    <i name="AMIN">      0.10000000</i>
    <i name="AMIX_MAG">      1.60000000</i>
    <i name="BMIX_MAG">      1.00000000</i>
    <separator name="electronic mixer details" >
     <i type="int" name="IMIX">     4</i>
     <i type="logical" name="MIXFIRST"> F  </i>
     <i type="int" name="MAXMIX">   -45</i>
     <i name="WC">    100.00000000</i>
     <i type="int" name="INIMIX">     1</i>
     <i type="int" name="MIXPRE">     1</i>
     <i type="int" name="MREMOVE">     5</i>
    </separator>
   </separator>
   <separator name="electronic dipolcorrection" >
    <i type="logical" name="LDIPOL"> F  </i>
    <i type="logical" name="LMONO"> F  </i>
    <i type="int" name="IDIPOL">     0</i>
    <i name="EPSILON">      1.00000000</i>
    <v name="DIPOL">   -100.00000000   -100.00000000   -100.00000000</v>
    <i name="EFIELD">      0.00000000</i>
   </separator>
  </separator>
  <separator name="grids" >
   <i type="int" name="NGX">    80</i>
   <i type="int" name="NGY">    80</i>
   <i type="int" name="NGZ">    80</i>
   <i type="int" name="NGXF">   160</i>
   <i type="int" name="NGYF">   160</i>
   <i type="int" name="NGZF">   160</i>
   <i type="logical" name="ADDGRID"> F  </i>
  </separator>
  <separator name="ionic" >
   <i type="int" name="NSW">   200</i>
   <i type="int" name="IBRION">     1</i>
   <i type="int" name="MDALGO">     0</i>
   <i type="int" name="ISIF">     4</i>
   <i name="PSTRESS">      0.00000000</i>
   <i name="EDIFFG">     -0.00500000</i>
   <i type="int" name="NFREE">     0</i>
   <i name="POTIM">      0.15000000</i>
   <i name="SMASS">     -3.00000000</i>
   <i name="SCALEE">      1.00000000</i>
  </separator>
  <separator name="ionic md" >
   <i name="TEBEG">      0.00010000</i>
   <i name="TEEND">      0.00010000</i>
   <i type="int" name="NBLOCK">     1</i>
   <i type="int" name="KBLOCK">   200</i>
   <i type="int" name="NPACO">   256</i>
   <i name="APACO">     16.00000000</i>
  </separator>
  <separator name="symmetry" >
   <i type="int" name="ISYM">     2</i>
   <i name="SYMPREC">      0.00001000</i>
  </separator>
  <separator name="dos" >
   <i type="int" name="LORBIT">     0</i>
   <v name="RWIGS">     -1.00000000     -1.00000000     -1.00000000     -1.00000000</v>
   <i type="int" name="NEDOS">   301</i>
   <i name="EMIN">     10.00000000</i>
   <i name="EMAX">    -10.00000000</i>
   <i name="EFERMI">      0.00000000</i>
  </separator>
  <separator name="writing" >
   <i type="int" name="NWRITE">     0</i>
   <i type="logical" name="LWAVE"> F  </i>
   <i type="logical" name="LDOWNSAMPLE"> F  </i>
   <i type="logical" name="LCHARG"> F  </i>
   <i type="logical" name="LPARD"> F  </i>
   <i type="logical" name="LVTOT"> F  </i>
   <i type="logical" name="LVHAR"> F  </i>
   <i type="logical" name="LELF"> F  </i>
   <i type="logical" name="LOPTICS"> F  </i>
   <v name="STM">      0.00000000      0.00000000      0.00000000      0.00000000      0.00000000      0.00000000      0.00000000</v>
  </separator>
  <separator name="performance" >
   <i type="int" name="NPAR">    72</i>
   <i type="int" name="NSIM">     4</i>
   <i type="int" name="NBLK">    -1</i>
   <i type="logical" name="LPLANE"> T  </i>
   <i type="logical" name="LSCALAPACK"> F  </i>
   <i type="logical" name="LSCAAWARE"> F  </i>
   <i type="logical" name="LSCALU"> F  </i>
   <i type="logical" name="LASYNC"> F  </i>
   <i type="logical" name="LORBITALREAL"> F  </i>
  </separator>
  <separator name="miscellaneous" >
   <i type="int" name="IDIOT">     3</i>
   <i type="int" name="ISPECIAL">     0</i>
   <i type="logical" name="LMUSIC"> F  </i>
   <v name="POMASS">      7.01000000     92.91000000     16.00000000    180.94800000</v>
   <v name="DARWINR">      0.00000000      0.00000000      0.00000000      0.00000000</v>
   <v name="DARWINV">      1.00000000      1.00000000      1.00000000      1.00000000</v>
   <i type="logical" name="LCORR"> T  </i>
  </separator>
  <i type="logical" name="GGA_COMPAT"> T  </i>
  <i type="logical" name="LBERRY"> F  </i>
  <i type="int" name="ICORELEVEL">     0</i>
  <i type="logical" name="LDAU"> F  </i>
  <i type="int" name="I_CONSTRAINED_M">     0</i>
  <separator name="electronic exchange-correlation" >
   <i type="string" name="GGA">PS</i>
   <i type="int" name="VOSKOWN">     0</i>
   <i type="logical" name="LHFCALC"> F  </i>
   <i type="string" name="PRECFOCK"></i>
   <i type="logical" name="LSYMGRAD"> F  </i>
   <i type="logical" name="LHFONE"> F  </i>
   <i type="logical" name="LRHFCALC"> F  </i>
   <i type="logical" name="LTHOMAS"> F  </i>
   <i type="logical" name="LMODELHF"> F  </i>
   <i name="ENCUT4O">     -1.00000000</i>
   <i type="int" name="EXXOEP">     0</i>
   <i type="int" name="FOURORBIT">     0</i>
   <i name="AEXX">      0.00000000</i>
   <i name="HFALPHA">      0.00000000</i>
   <i name="MCALPHA">      0.00000000</i>
   <i name="ALDAX">      1.00000000</i>
   <i name="AGGAX">      1.00000000</i>
   <i name="ALDAC">      1.00000000</i>
   <i name="AGGAC">      1.00000000</i>
   <i type="int" name="NKREDX">     1</i>
   <i type="int" name="NKREDY">     1</i>
   <i type="int" name="NKREDZ">     1</i>
   <i type="logical" name="SHIFTRED"> F  </i>
   <i type="logical" name="ODDONLY"> F  </i>
   <i type="logical" name="EVENONLY"> F  </i>
   <i type="int" name="LMAXFOCK">     0</i>
   <i type="int" name="NMAXFOCKAE">     0</i>
   <i type="logical" name="LFOCKAEDFT"> F  </i>
   <i name="HFSCREEN">      0.00000000</i>
   <i name="HFSCREENC">      0.00000000</i>
   <i type="int" name="NBANDSGWLOW">     0</i>
  </separator>
  <separator name="vdW DFT" >
   <i type="logical" name="LUSE_VDW"> F  </i>
   <i name="Zab_VDW">     -0.84910000</i>
   <i name="PARAM1">      0.12340000</i>
   <i name="PARAM2">      1.00000000</i>
   <i name="PARAM3">      0.00000000</i>
  </separator>
  <separator name="model GW" >
   <i type="int" name="MODEL_GW">     0</i>
   <i name="MODEL_EPS0">      6.60371853</i>
   <i name="MODEL_ALPHA">      1.00000000</i>
  </separator>
  <separator name="linear response parameters" >
   <i type="logical" name="LEPSILON"> F  </i>
   <i type="logical" name="LRPA"> F  </i>
   <i type="logical" name="LNABLA"> F  </i>
   <i type="logical" name="LVEL"> F  </i>
   <i type="int" name="KINTER">     0</i>
   <i name="CSHIFT">      0.10000000</i>
   <i name="OMEGAMAX">     -1.00000000</i>
   <i name="DEG_THRESHOLD">      0.00200000</i>
   <i name="RTIME">     -0.10000000</i>
   <i name="WPLASMAI">      0.00000000</i>
   <v name="DFIELD">      0.00000000      0.00000000      0.00000000</v>
   <v name="WPLASMA">      0.00000000      0.00000000      0.00000000      0.00000000      0.00000000      0.00000000      0.00000000      0.00000000      0.00000000</v>
  </separator>
  <separator name="orbital magnetization" >
   <i type="logical" name="NUCIND"> F  </i>
   <v name="MAGPOS">      0.00000000      0.00000000      0.00000000</v>
   <i type="logical" name="LNICSALL"> T  </i>
   <i type="logical" name="ORBITALMAG"> F  </i>
   <i type="logical" name="LMAGBLOCH"> F  </i>
   <i type="logical" name="LCHIMAG"> F  </i>
   <i type="logical" name="LGAUGE"> T  </i>
   <i type="int" name="MAGATOM">     0</i>
   <v name="MAGDIPOL">      0.00000000      0.00000000      0.00000000</v>
   <v name="AVECCONST">      0.00000000      0.00000000      0.00000000</v>
  </separator>
  <separator name="response functions" >
   <i type="logical" name="LADDER"> F  </i>
   <i type="logical" name="LRPAFORCE"> F  </i>
   <i type="logical" name="LFXC"> F  </i>
   <i type="logical" name="LHARTREE"> T  </i>
   <i type="int" name="IBSE">     0</i>
   <v type="int" name="KPOINT">    -1     0     0     0</v>
   <i type="logical" name="LTCTE"> F  </i>
   <i type="logical" name="LTETE"> F  </i>
   <i type="logical" name="LTRIPLET"> F  </i>
   <i type="logical" name="LFXCEPS"> F  </i>
   <i type="logical" name="LFXHEG"> F  </i>
   <i type="int" name="NATURALO">     2</i>
   <i type="logical" name="L2ORDER"> F  </i>
   <i type="logical" name="LMP2LT"> F  </i>
   <i type="logical" name="LUSEW"> F  </i>
   <i name="ENCUTGW">     -2.00000000</i>
   <i name="ENCUTGWSOFT">     -2.00000000</i>
   <i name="ENCUTLF">     -1.00000000</i>
   <i type="int" name="LMAXMP2">    -1</i>
   <i name="SCISSOR">      0.00000000</i>
   <i type="int" name="NOMEGA">     0</i>
   <i type="int" name="NOMEGAR">     0</i>
   <i type="int" name="NBANDSGW">    -1</i>
   <i type="int" name="NBANDSO">    -1</i>
   <i type="int" name="NBANDSV">    -1</i>
   <i type="int" name="NELM">  1000</i>
   <i type="int" name="NELMHF">     1</i>
   <i type="int" name="DIM">     3</i>
   <i type="int" name="ANTIRES">     0</i>
   <i name="OMEGAMAX">    -30.00000000</i>
   <i name="OMEGAMIN">    -30.00000000</i>
   <i name="OMEGATL">   -200.00000000</i>
   <i type="int" name="OMEGAGRID">   140</i>
   <i name="CSHIFT">     -0.10000000</i>
   <i type="logical" name="SELFENERGY"> F  </i>
   <i type="logical" name="LSPECTRAL"> F  </i>
   <i type="logical" name="LSPECTRALGW"> F  </i>
   <i type="logical" name="LSINGLES"> F  </i>
   <i type="logical" name="LFERMIGW"> F  </i>
   <i type="logical" name="ODDONLYGW"> F  </i>
   <i type="logical" name="EVENONLYGW"> F  </i>
   <i type="int" name="NKREDLFX">     1</i>
   <i type="int" name="NKREDLFY">     1</i>
   <i type="int" name="NKREDLFZ">     1</i>
   <i type="int" name="MAXMEM">  2800</i>
   <i type="int" name="TELESCOPE">     0</i>
   <i type="int" name="TAUPAR">     1</i>
   <i type="int" name="OMEGAPAR">    -1</i>
   <i name="LAMBDA">      1.00000000</i>
  </separator>
  <separator name="External order field" >
   <i name="OFIELD_KAPPA">      0.00000000</i>
   <v name="OFIELD_K">      0.00000000      0.00000000      0.00000000</v>
   <i name="OFIELD_Q6_NEAR">      0.00000000</i>
   <i name="OFIELD_Q6_FAR">      0.00000000</i>
   <i name="OFIELD_A">      0.00000000</i>
  </separator>
 </parameters>
 <atominfo>
  <atoms>      80 </atoms>
  <types>       4 </types>
  <array name="atoms" >
   <dimension dim="1">ion</dimension>
   <field type="string">element</field>
   <field type="int">atomtype</field>
   <set>
    <rc><c>Li</c><c>   1</c></rc>
    <rc><c>Li</c><c>   1</c></rc>
    <rc><c>Li</c><c>   1</c></rc>
    <rc><c>Li</c><c>   1</c></rc>
    <rc><c>Li</c><c>   1</c></rc>
    <rc><c>Li</c><c>   1</c></rc>
    <rc><c>Li</c><c>   1</c></rc>
    <rc><c>Li</c><c>   1</c></rc>
    <rc><c>Li</c><c>   1</c></rc>
    <rc><c>Li</c><c>   1</c></rc>
    <rc><c>Li</c><c>   1</c></rc>
    <rc><c>Li</c><c>   1</c></rc>
    <rc><c>Li</c><c>   1</c></rc>
    <rc><c>Li</c><c>   1</c></rc>
    <rc><c>Li</c><c>   1</c></rc>
    <rc><c>Li</c><c>   1</c></rc>
    <rc><c>Nb</c><c>   2</c></rc>
    <rc><c>Nb</c><c>   2</c></rc>
    <rc><c>Nb</c><c>   2</c></rc>
    <rc><c>Nb</c><c>   2</c></rc>
    <rc><c>Nb</c><c>   2</c></rc>
    <rc><c>Nb</c><c>   2</c></rc>
    <rc><c>Nb</c><c>   2</c></rc>
    <rc><c>Nb</c><c>   2</c></rc>
    <rc><c>Nb</c><c>   2</c></rc>
    <rc><c>Nb</c><c>   2</c></rc>
    <rc><c>O </c><c>   3</c></rc>
    <rc><c>O </c><c>   3</c></rc>
    <rc><c>O </c><c>   3</c></rc>
    <rc><c>O </c><c>   3</c></rc>
    <rc><c>O </c><c>   3</c></rc>
    <rc><c>O </c><c>   3</c></rc>
    <rc><c>O </c><c>   3</c></rc>
    <rc><c>O </c><c>   3</c></rc>
    <rc><c>O </c><c>   3</c></rc>
    <rc><c>O </c><c>   3</c></rc>
    <rc><c>O </c><c>   3</c></rc>
    <rc><c>O </c><c>   3</c></rc>
    <rc><c>O </c><c>   3</c></rc>
    <rc><c>O </c><c>   3</c></rc>
    <rc><c>O </c><c>   3</c></rc>
    <rc><c>O </c><c>   3</c></rc>
    <rc><c>O </c><c>   3</c></rc>
    <rc><c>O </c><c>   3</c></rc>
    <rc><c>O </c><c>   3</c></rc>
    <rc><c>O </c><c>   3</c></rc>
    <rc><c>O </c><c>   3</c></rc>
    <rc><c>O </c><c>   3</c></rc>
    <rc><c>O </c><c>   3</c></rc>
    <rc><c>O </c><c>   3</c></rc>
    <rc><c>O </c><c>   3</c></rc>
    <rc><c>O </c><c>   3</c></rc>
    <rc><c>O </c><c>   3</c></rc>
    <rc><c>O </c><c>   3</c></rc>
    <rc><c>O </c><c>   3</c></rc>
    <rc><c>O </c><c>   3</c></rc>
    <rc><c>O </c><c>   3</c></rc>
    <rc><c>O </c><c>   3</c></rc>
    <rc><c>O </c><c>   3</c></rc>
    <rc><c>O </c><c>   3</c></rc>
    <rc><c>O </c><c>   3</c></rc>
    <rc><c>O </c><c>   3</c></rc>
    <rc><c>O </c><c>   3</c></rc>
    <rc><c>O </c><c>   3</c></rc>
    <rc><c>O </c><c>   3</c></rc>
    <rc><c>O </c><c>   3</c></rc>
    <rc><c>O </c><c>   3</c></rc>
    <rc><c>O </c><c>   3</c></rc>
    <rc><c>O </c><c>   3</c></rc>
    <rc><c>O </c><c>   3</c></rc>
    <rc><c>O </c><c>   3</c></rc>
    <rc><c>O </c><c>   3</c></rc>
    <rc><c>O </c><c>   3</c></rc>
    <rc><c>O </c><c>   3</c></rc>
    <rc><c>Ta</c><c>   4</c></rc>
    <rc><c>Ta</c><c>   4</c></rc>
    <rc><c>Ta</c><c>   4</c></rc>
    <rc><c>Ta</c><c>   4</c></rc>
    <rc><c>Ta</c><c>   4</c></rc>
    <rc><c>Ta</c><c>   4</c></rc>
   </set>
  </array>
  <array name="atomtypes" >
   <dimension dim="1">type</dimension>
   <field type="int">atomspertype</field>
   <field type="string">element</field>
   <field>mass</field>
   <field>valence</field>
   <field type="string">pseudopotential</field>
   <set>
    <rc><c>  16</c><c>Li</c><c>      7.01000000</c><c>      1.00000000</c><c>  PAW_PBE Li 17Jan2003                  </c></rc>
    <rc><c>  10</c><c>Nb</c><c>     92.91000000</c><c>     13.00000000</c><c>  PAW_PBE Nb_sv 25May2007               </c></rc>
    <rc><c>  48</c><c>O </c><c>     16.00000000</c><c>      6.00000000</c><c>  PAW_PBE O 08Apr2002                   </c></rc>
    <rc><c>   6</c><c>Ta</c><c>    180.94800000</c><c>      5.00000000</c><c>  PAW_PBE Ta 17Jan2003                  </c></rc>
   </set>
  </array>
 </atominfo>
 <structure name="initialpos" >
  <crystal>
   <varray name="basis" >
    <v>       5.21774626      -3.01085075       9.34214817 </v>
    <v>       0.00250516       6.02330919       9.34127424 </v>
    <v>      -5.21510529      -3.01221869       9.34023956 </v>
   </varray>
   <i name="volume">    880.49580369 </i>
   <varray name="rec_basis" >
    <v>       0.09585180      -0.05535418       0.03566700 </v>
    <v>      -0.00002104       0.11068228       0.03568319 </v>
    <v>      -0.09585035      -0.05532905       0.03570220 </v>
   </varray>
  </crystal>
  <varray name="positions" >
   <v>       0.13834752       0.13936271       0.13984335 </v>
   <v>       0.39146324       0.38999630       0.39085144 </v>
   <v>       0.14028321       0.14032414       0.64092124 </v>
   <v>       0.39173469       0.39088444       0.89059988 </v>
   <v>       0.14005761       0.63914415       0.13990376 </v>
   <v>       0.38998511       0.89022976       0.39046082 </v>
   <v>       0.14027342       0.63856692       0.63942290 </v>
   <v>       0.39066873       0.89122478       0.89017412 </v>
   <v>       0.63968950       0.14081636       0.13851063 </v>
   <v>       0.89081879       0.39199278       0.39127564 </v>
   <v>       0.64044608       0.13979598       0.63895884 </v>
   <v>       0.89104424       0.39188824       0.88993991 </v>
   <v>       0.63987068       0.64050964       0.14005521 </v>
   <v>       0.88952244       0.89019616       0.39154151 </v>
   <v>       0.64095434       0.64008558       0.64144699 </v>
   <v>       0.89103108       0.89076076       0.89134632 </v>
   <v>       0.99959237       0.00150112       0.99675172 </v>
   <v>       0.99938324       0.00003493       0.49763958 </v>
   <v>       0.25168038       0.24891337       0.74959517 </v>
   <v>       0.99749990       0.49794372       0.00086033 </v>
   <v>       0.00052440       0.49715140       0.50088067 </v>
   <v>       0.49988249       0.99738472       0.00090131 </v>
   <v>       0.49954620       0.50003968       0.99785757 </v>
   <v>       0.75097315       0.74942469       0.24984287 </v>
   <v>       0.49985523       0.50129758       0.49655071 </v>
   <v>       0.74940214       0.75095878       0.74802348 </v>
   <v>       0.05623360       0.18120304       0.36059596 </v>
   <v>       0.36055215       0.05618073       0.18135900 </v>
   <v>       0.18067803       0.36043515       0.05635112 </v>
   <v>       0.43164615       0.30579781       0.11007695 </v>
   <v>       0.10933811       0.43208088       0.30572184 </v>
   <v>       0.30616879       0.11038237       0.43144631 </v>
   <v>       0.05540035       0.18155956       0.86034038 </v>
   <v>       0.35943918       0.05639020       0.68203455 </v>
   <v>       0.18159346       0.36067916       0.55556672 </v>
   <v>       0.43176800       0.30520898       0.61104129 </v>
   <v>       0.11066152       0.43074915       0.80539644 </v>
   <v>       0.30515946       0.11079423       0.93190663 </v>
   <v>       0.05604537       0.68076856       0.36081137 </v>
   <v>       0.36061507       0.55618152       0.18081868 </v>
   <v>       0.18040413       0.86090372       0.05629587 </v>
   <v>       0.43096027       0.80670950       0.10983535 </v>
   <v>       0.11018018       0.93120277       0.30647725 </v>
   <v>       0.30631393       0.60963452       0.43142758 </v>
   <v>       0.05642617       0.67983109       0.86072292 </v>
   <v>       0.36082901       0.55621291       0.68039936 </v>
   <v>       0.18050111       0.86073339       0.55625759 </v>
   <v>       0.43105925       0.80638098       0.60992686 </v>
   <v>       0.10974163       0.93076687       0.80662904 </v>
   <v>       0.30592914       0.60973059       0.93157562 </v>
   <v>       0.55668960       0.18089021       0.36049958 </v>
   <v>       0.86099568       0.05588109       0.18065345 </v>
   <v>       0.68094161       0.36072792       0.05606070 </v>
   <v>       0.93094987       0.30643726       0.10970186 </v>
   <v>       0.61015919       0.43137998       0.30635721 </v>
   <v>       0.80662739       0.10979363       0.43135599 </v>
   <v>       0.55625493       0.18016866       0.86082204 </v>
   <v>       0.86060460       0.05601788       0.68054061 </v>
   <v>       0.68056339       0.36084158       0.55626059 </v>
   <v>       0.93128773       0.30623948       0.60979445 </v>
   <v>       0.61008613       0.43101265       0.80636497 </v>
   <v>       0.80623116       0.10929440       0.93147945 </v>
   <v>       0.55554077       0.68183433       0.36007734 </v>
   <v>       0.86007458       0.55634829       0.18046819 </v>
   <v>       0.68107200       0.86046774       0.05575260 </v>
   <v>       0.93136114       0.80492582       0.11095065 </v>
   <v>       0.61067752       0.93165297       0.30547765 </v>
   <v>       0.80503784       0.61074302       0.43111591 </v>
   <v>       0.55556968       0.68082022       0.86090541 </v>
   <v>       0.86059508       0.55581627       0.68050717 </v>
   <v>       0.68097931       0.85972506       0.55655493 </v>
   <v>       0.93138973       0.80539064       0.61084254 </v>
   <v>       0.61024363       0.93134011       0.80571432 </v>
   <v>       0.80584636       0.61083297       0.93009391 </v>
   <v>       0.24862253       0.24992729       0.24762435 </v>
   <v>       0.24806756       0.74806531       0.24849505 </v>
   <v>       0.24752603       0.74745881       0.74934160 </v>
   <v>       0.74730972       0.24776208       0.24918815 </v>
   <v>       0.49682629       0.99767190       0.50015434 </v>
   <v>       0.74834988       0.24827406       0.74832874 </v>
  </varray>
 </structure>
 <calculation>
  <scstep>
   <time name="dav">   26.35   26.35</time>
   <time name="total">   26.52   26.52</time>
   <energy>
    <i name="alphaZ">   1562.80005997 </i>
    <i name="ewald"> -26366.79157258 </i>
    <i name="hartreedc"> -10847.41552188 </i>
    <i name="XCdc">   1459.84970752 </i>
    <i name="pawpsdc">  30201.20122080 </i>
    <i name="pawaedc"> -29545.67637776 </i>
    <i name="eentropy">      0.00000000 </i>
    <i name="bandstr">     41.36144513 </i>
    <i name="atom">  37080.84622879 </i>
    <i name="e_fr_energy">   3586.17518999 </i>
    <i name="e_wo_entrp">   3586.17518999 </i>
    <i name="e_0_energy">   3586.17518999 </i>
   </energy>
  </scstep>
  <scstep>
   <time name="dav">   39.00   39.02</time>
   <time name="total">   39.01   39.03</time>
   <energy>
    <i name="e_fr_energy">   -556.96228321 </i>
    <i name="e_wo_entrp">   -556.96228321 </i>
    <i name="e_0_energy">   -556.96228321 </i>
   </energy>
  </scstep>
  <scstep>
   <time name="dav">   38.78   38.79</time>
   <time name="total">   38.80   38.80</time>
   <energy>
    <i name="e_fr_energy">   -802.05928230 </i>
    <i name="e_wo_entrp">   -802.05928230 </i>
    <i name="e_0_energy">   -802.05928230 </i>
   </energy>
  </scstep>
  <scstep>
   <time name="dav">   45.23   45.24</time>
   <time name="total">   45.24   45.25</time>
   <energy>
    <i name="e_fr_energy">   -812.97958240 </i>
    <i name="e_wo_entrp">   -812.97958240 </i>
    <i name="e_0_energy">   -812.97958240 </i>
   </energy>
  </scstep>
  <scstep>
   <time name="dav">   39.06   39.07</time>
   <time name="total">   40.07   40.07</time>
   <energy>
    <i name="e_fr_energy">   -813.20788233 </i>
    <i name="e_wo_entrp">   -813.20788233 </i>
    <i name="e_0_energy">   -813.20788233 </i>
   </energy>
  </scstep>
  <scstep>
   <time name="diag">    3.96    3.96</time>
   <time name="diis">   13.97   13.96</time>
   <time name="orth">    0.56    0.56</time>
   <time name="total">   19.55   19.55</time>
   <energy>
    <i name="e_fr_energy">   -689.38765631 </i>
    <i name="e_wo_entrp">   -689.38765631 </i>
    <i name="e_0_energy">   -689.38765631 </i>
   </energy>
  </scstep>
  <scstep>
   <time name="diag">    3.99    3.99</time>
   <time name="diis">   15.94   15.94</time>
   <time name="orth">    0.56    0.56</time>
   <time name="total">   21.55   21.57</time>
   <energy>
    <i name="e_fr_energy">   -679.41539755 </i>
    <i name="e_wo_entrp">   -679.41539755 </i>
    <i name="e_0_energy">   -679.41539755 </i>
   </energy>
  </scstep>
  <scstep>
   <time name="diag">    3.96    3.96</time>
   <time name="diis">   15.75   15.75</time>
   <time name="orth">    0.56    0.56</time>
   <time name="total">   21.32   21.34</time>
   <energy>
    <i name="e_fr_energy">   -679.23034684 </i>
    <i name="e_wo_entrp">   -679.23034684 </i>
    <i name="e_0_energy">   -679.23034684 </i>
   </energy>
  </scstep>
  <scstep>
   <time name="diag">    3.97    3.97</time>
   <time name="diis">   17.80   17.80</time>
   <time name="orth">    0.56    0.56</time>
   <time name="total">   23.38   23.40</time>
   <energy>
    <i name="e_fr_energy">   -679.15137340 </i>
    <i name="e_wo_entrp">   -679.15137340 </i>
    <i name="e_0_energy">   -679.15137340 </i>
   </energy>
  </scstep>
  <scstep>
   <time name="diag">    3.97    3.97</time>
   <time name="diis">   17.93   17.93</time>
   <time name="orth">    0.56    0.56</time>
   <time name="total">   23.51   23.52</time>
   <energy>
    <i name="e_fr_energy">   -679.14538344 </i>
    <i name="e_wo_entrp">   -679.14538344 </i>
    <i name="e_0_energy">   -679.14538344 </i>
   </energy>
  </scstep>
  <scstep>
   <time name="diag">    3.98    3.98</time>
   <time name="diis">   18.46   18.45</time>
   <time name="orth">    0.56    0.56</time>
   <time name="total">   24.07   24.07</time>
   <energy>
    <i name="e_fr_energy">   -679.15807478 </i>
    <i name="e_wo_entrp">   -679.15807478 </i>
    <i name="e_0_energy">   -679.15807478 </i>
   </energy>
  </scstep>
  <scstep>
   <time name="diag">    3.96    3.96</time>
   <time name="diis">   18.60   18.60</time>
   <time name="orth">    0.56    0.56</time>
   <time name="total">   24.19   24.21</time>
   <energy>
    <i name="e_fr_energy">   -679.16159091 </i>
    <i name="e_wo_entrp">   -679.16159091 </i>
    <i name="e_0_energy">   -679.16159091 </i>
   </energy>
  </scstep>
  <scstep>
   <time name="diag">    3.96    3.96</time>
   <time name="diis">   18.46   18.46</time>
   <time name="orth">    0.56    0.56</time>
   <time name="total">   24.04   24.06</time>
   <energy>
    <i name="e_fr_energy">   -679.16269655 </i>
    <i name="e_wo_entrp">   -679.16269655 </i>
    <i name="e_0_energy">   -679.16269655 </i>
   </energy>
  </scstep>
  <scstep>
   <time name="diag">    3.97    3.97</time>
   <time name="diis">   18.17   18.17</time>
   <time name="orth">    0.56    0.56</time>
   <time name="total">   23.77   23.78</time>
   <energy>
    <i name="e_fr_energy">   -679.16279580 </i>
    <i name="e_wo_entrp">   -679.16279580 </i>
    <i name="e_0_energy">   -679.16279580 </i>
   </energy>
  </scstep>
  <scstep>
   <time name="diag">    3.97    3.96</time>
   <time name="diis">   19.13   19.13</time>
   <time name="orth">    0.56    0.56</time>
   <time name="total">   24.73   24.74</time>
   <energy>
    <i name="e_fr_energy">   -679.16301359 </i>
    <i name="e_wo_entrp">   -679.16301359 </i>
    <i name="e_0_energy">   -679.16301359 </i>
   </energy>
  </scstep>
  <scstep>
   <time name="diag">    3.96    3.96</time>
   <time name="diis">   19.11   19.10</time>
   <time name="orth">    0.56    0.56</time>
   <time name="total">   24.67   24.68</time>
   <energy>
    <i name="e_fr_energy">   -679.16311558 </i>
    <i name="e_wo_entrp">   -679.16311558 </i>
    <i name="e_0_energy">   -679.16311558 </i>
   </energy>
  </scstep>
  <scstep>
   <time name="diag">    3.95    3.95</time>
   <time name="diis">   19.03   19.03</time>
   <time name="orth">    0.56    0.56</time>
   <time name="total">   24.59   24.61</time>
   <energy>
    <i name="e_fr_energy">   -679.16314983 </i>
    <i name="e_wo_entrp">   -679.16314983 </i>
    <i name="e_0_energy">   -679.16314983 </i>
   </energy>
  </scstep>
  <scstep>
   <time name="diag">    3.95    3.95</time>
   <time name="diis">   18.11   18.11</time>
   <time name="orth">    0.56    0.56</time>
   <time name="total">   23.68   23.69</time>
   <energy>
    <i name="e_fr_energy">   -679.16316697 </i>
    <i name="e_wo_entrp">   -679.16316697 </i>
    <i name="e_0_energy">   -679.16316697 </i>
   </energy>
  </scstep>
  <scstep>
   <time name="diag">    3.96    3.96</time>
   <time name="diis">   17.24   17.24</time>
   <time name="orth">    0.56    0.56</time>
   <time name="total">   22.80   22.81</time>
   <energy>
    <i name="e_fr_energy">   -679.16317476 </i>
    <i name="e_wo_entrp">   -679.16317476 </i>
    <i name="e_0_energy">   -679.16317476 </i>
   </energy>
  </scstep>
  <scstep>
   <time name="diag">    4.00    4.00</time>
   <time name="diis">   16.57   16.57</time>
   <time name="orth">    0.56    0.56</time>
   <time name="total">   22.18   22.19</time>
   <energy>
    <i name="e_fr_energy">   -679.16317733 </i>
    <i name="e_wo_entrp">   -679.16317733 </i>
    <i name="e_0_energy">   -679.16317733 </i>
   </energy>
  </scstep>
  <scstep>
   <time name="diag">    3.97    3.97</time>
   <time name="diis">   15.70   15.70</time>
   <time name="orth">    0.57    0.57</time>
   <time name="total">   21.30   21.32</time>
   <energy>
    <i name="e_fr_energy">   -679.16317887 </i>
    <i name="e_wo_entrp">   -679.16317887 </i>
    <i name="e_0_energy">   -679.16317887 </i>
   </energy>
  </scstep>
  <scstep>
   <time name="diag">    3.96    3.96</time>
   <time name="diis">   14.03   14.03</time>
   <time name="orth">    0.57    0.57</time>
   <time name="total">   18.63   18.64</time>
   <energy>
    <i name="alphaZ">   1562.80005997 </i>
    <i name="ewald"> -26366.79157258 </i>
    <i name="hartreedc"> -11203.01303338 </i>
    <i name="XCdc">   1504.63515417 </i>
    <i name="pawpsdc">  43575.08068502 </i>
    <i name="pawaedc"> -42908.67707278 </i>
    <i name="eentropy">      0.00000000 </i>
    <i name="bandstr">  -3924.04362880 </i>
    <i name="atom">  37080.84622879 </i>
    <i name="e_fr_energy">   -679.16317960 </i>
    <i name="e_wo_entrp">   -679.16317960 </i>
    <i name="e_0_energy">   -679.16317960 </i>
   </energy>
  </scstep>
  <structure>
   <crystal>
    <varray name="basis" >
     <v>       5.21774626      -3.01085075       9.34214817 </v>
     <v>       0.00250516       6.02330919       9.34127424 </v>
     <v>      -5.21510529      -3.01221869       9.34023956 </v>
    </varray>
    <i name="volume">    880.49580369 </i>
    <varray name="rec_basis" >
     <v>       0.09585180      -0.05535418       0.03566700 </v>
     <v>      -0.00002104       0.11068228       0.03568319 </v>
     <v>      -0.09585035      -0.05532905       0.03570220 </v>
    </varray>
   </crystal>
   <varray name="positions" >
    <v>       0.13834752       0.13936271       0.13984335 </v>
    <v>       0.39146324       0.38999630       0.39085144 </v>
    <v>       0.14028321       0.14032414       0.64092124 </v>
    <v>       0.39173469       0.39088444       0.89059988 </v>
    <v>       0.14005761       0.63914415       0.13990376 </v>
    <v>       0.38998511       0.89022976       0.39046082 </v>
    <v>       0.14027342       0.63856692       0.63942290 </v>
    <v>       0.39066873       0.89122478       0.89017412 </v>
    <v>       0.63968950       0.14081636       0.13851063 </v>
    <v>       0.89081879       0.39199278       0.39127564 </v>
    <v>       0.64044608       0.13979598       0.63895884 </v>
    <v>       0.89104424       0.39188824       0.88993991 </v>
    <v>       0.63987068       0.64050964       0.14005521 </v>
    <v>       0.88952244       0.89019616       0.39154151 </v>
    <v>       0.64095434       0.64008558       0.64144699 </v>
    <v>       0.89103108       0.89076076       0.89134632 </v>
    <v>       0.99959237       0.00150112       0.99675172 </v>
    <v>       0.99938324       0.00003493       0.49763958 </v>
    <v>       0.25168038       0.24891337       0.74959517 </v>
    <v>       0.99749990       0.49794372       0.00086033 </v>
    <v>       0.00052440       0.49715140       0.50088067 </v>
    <v>       0.49988249       0.99738472       0.00090131 </v>
    <v>       0.49954620       0.50003968       0.99785757 </v>
    <v>       0.75097315       0.74942469       0.24984287 </v>
    <v>       0.49985523       0.50129758       0.49655071 </v>
    <v>       0.74940214       0.75095878       0.74802348 </v>
    <v>       0.05623360       0.18120304       0.36059596 </v>
    <v>       0.36055215       0.05618073       0.18135900 </v>
    <v>       0.18067803       0.36043515       0.05635112 </v>
    <v>       0.43164615       0.30579781       0.11007695 </v>
    <v>       0.10933811       0.43208088       0.30572184 </v>
    <v>       0.30616879       0.11038237       0.43144631 </v>
    <v>       0.05540035       0.18155956       0.86034038 </v>
    <v>       0.35943918       0.05639020       0.68203455 </v>
    <v>       0.18159346       0.36067916       0.55556672 </v>
    <v>       0.43176800       0.30520898       0.61104129 </v>
    <v>       0.11066152       0.43074915       0.80539644 </v>
    <v>       0.30515946       0.11079423       0.93190663 </v>
    <v>       0.05604537       0.68076856       0.36081137 </v>
    <v>       0.36061507       0.55618152       0.18081868 </v>
    <v>       0.18040413       0.86090372       0.05629587 </v>
    <v>       0.43096027       0.80670950       0.10983535 </v>
    <v>       0.11018018       0.93120277       0.30647725 </v>
    <v>       0.30631393       0.60963452       0.43142758 </v>
    <v>       0.05642617       0.67983109       0.86072292 </v>
    <v>       0.36082901       0.55621291       0.68039936 </v>
    <v>       0.18050111       0.86073339       0.55625759 </v>
    <v>       0.43105925       0.80638098       0.60992686 </v>
    <v>       0.10974163       0.93076687       0.80662904 </v>
    <v>       0.30592914       0.60973059       0.93157562 </v>
    <v>       0.55668960       0.18089021       0.36049958 </v>
    <v>       0.86099568       0.05588109       0.18065345 </v>
    <v>       0.68094161       0.36072792       0.05606070 </v>
    <v>       0.93094987       0.30643726       0.10970186 </v>
    <v>       0.61015919       0.43137998       0.30635721 </v>
    <v>       0.80662739       0.10979363       0.43135599 </v>
    <v>       0.55625493       0.18016866       0.86082204 </v>
    <v>       0.86060460       0.05601788       0.68054061 </v>
    <v>       0.68056339       0.36084158       0.55626059 </v>
    <v>       0.93128773       0.30623948       0.60979445 </v>
    <v>       0.61008613       0.43101265       0.80636497 </v>
    <v>       0.80623116       0.10929440       0.93147945 </v>
    <v>       0.55554077       0.68183433       0.36007734 </v>
    <v>       0.86007458       0.55634829       0.18046819 </v>
    <v>       0.68107200       0.86046774       0.05575260 </v>
    <v>       0.93136114       0.80492582       0.11095065 </v>
    <v>       0.61067752       0.93165297       0.30547765 </v>
    <v>       0.80503784       0.61074302       0.43111591 </v>
    <v>       0.55556968       0.68082022       0.86090541 </v>
    <v>       0.86059508       0.55581627       0.68050717 </v>
    <v>       0.68097931       0.85972506       0.55655493 </v>
    <v>       0.93138973       0.80539064       0.61084254 </v>
    <v>       0.61024363       0.93134011       0.80571432 </v>
    <v>       0.80584636       0.61083297       0.93009391 </v>
    <v>       0.24862253       0.24992729       0.24762435 </v>
    <v>       0.24806756       0.74806531       0.24849505 </v>
    <v>       0.24752603       0.74745881       0.74934160 </v>
    <v>       0.74730972       0.24776208       0.24918815 </v>
    <v>       0.49682629       0.99767190       0.50015434 </v>
    <v>       0.74834988       0.24827406       0.74832874 </v>
   </varray>
  </structure>
  <varray name="forces" >
   <v>      -0.00038643      -0.00005529      -0.00461971 </v>
   <v>       0.00115313      -0.00006945      -0.00008286 </v>
   <v>       0.00149047      -0.00115100      -0.00251518 </v>
   <v>       0.00038673       0.00060642       0.00464397 </v>
   <v>       0.00051455      -0.00260628      -0.00387799 </v>
   <v>      -0.00083207      -0.00062768       0.00058964 </v>
   <v>       0.00175196       0.00000722      -0.00306210 </v>
   <v>       0.00190276       0.00129304      -0.00101037 </v>
   <v>      -0.00114443       0.00314430      -0.00316781 </v>
   <v>       0.00056109      -0.00274424       0.00360169 </v>
   <v>       0.00168889       0.00145120      -0.00296135 </v>
   <v>      -0.00054149      -0.00175660       0.00085297 </v>
   <v>      -0.00293606      -0.00105003      -0.00283246 </v>
   <v>      -0.00213198       0.00148354      -0.00026905 </v>
   <v>      -0.00040946       0.00052052      -0.00038584 </v>
   <v>       0.00012424       0.00335205       0.00371917 </v>
   <v>       0.03916342       0.05909958       0.33908946 </v>
   <v>       0.01863214       0.02230231       0.30899977 </v>
   <v>       0.02707023      -0.01951999       0.37957167 </v>
   <v>      -0.05481462      -0.01631270       0.31784571 </v>
   <v>      -0.01480377      -0.06272257       0.35636063 </v>
   <v>       0.00168628      -0.05158374       0.34143206 </v>
   <v>       0.03069840       0.03424401       0.32165105 </v>
   <v>       0.02210804      -0.03579943       0.39574228 </v>
   <v>       0.03923782       0.04986666       0.32273250 </v>
   <v>       0.01703050       0.02370943       0.35571777 </v>
   <v>      -0.05396746      -0.51953009      -0.07648810 </v>
   <v>       0.47102948       0.20571634      -0.06328847 </v>
   <v>      -0.42732351       0.27132794      -0.04687533 </v>
   <v>      -0.57618031       0.15933856      -0.16978492 </v>
   <v>       0.15471461      -0.57434818      -0.15519464 </v>
   <v>       0.43681928       0.30824916      -0.07494960 </v>
   <v>      -0.15971893      -0.56599726      -0.16231528 </v>
   <v>       0.56129221       0.15754525      -0.15486625 </v>
   <v>      -0.40949524       0.40590606      -0.15075385 </v>
   <v>      -0.55480963       0.14468187      -0.14860802 </v>
   <v>       0.12500346      -0.53284695      -0.11275517 </v>
   <v>       0.40974349       0.39024072      -0.13544507 </v>
   <v>      -0.01954131      -0.49655850      -0.03234772 </v>
   <v>       0.44552400       0.23176281      -0.04259605 </v>
   <v>      -0.40926254       0.28075601      -0.04479356 </v>
   <v>      -0.52986753       0.17014397      -0.12967630 </v>
   <v>       0.11572907      -0.54671153      -0.13642914 </v>
   <v>       0.41779985       0.38502330      -0.13532747 </v>
   <v>      -0.01673737      -0.48534076      -0.02936847 </v>
   <v>       0.44311847       0.23516225      -0.04026666 </v>
   <v>      -0.41437418       0.28760335      -0.05751773 </v>
   <v>      -0.47203689       0.23312878      -0.06314506 </v>
   <v>       0.12178578      -0.55348431      -0.13719267 </v>
   <v>       0.41915488       0.39908485      -0.15234949 </v>
   <v>      -0.03152451      -0.51593419      -0.05663477 </v>
   <v>       0.45154365       0.23378872      -0.04545318 </v>
   <v>      -0.41937887       0.28144518      -0.05196286 </v>
   <v>      -0.51328885       0.17916905      -0.11163092 </v>
   <v>       0.11197839      -0.54901491      -0.13778553 </v>
   <v>       0.41446758       0.37874261      -0.14009104 </v>
   <v>      -0.03273241      -0.50343416      -0.04472179 </v>
   <v>       0.45403184       0.22730244      -0.05168806 </v>
   <v>      -0.40894331       0.28091841      -0.04504884 </v>
   <v>      -0.54228997       0.16555774      -0.13686514 </v>
   <v>       0.12744081      -0.55389363      -0.14204343 </v>
   <v>       0.41904494       0.38987595      -0.13155944 </v>
   <v>      -0.14972015      -0.55804009      -0.15322987 </v>
   <v>       0.53591791       0.14925530      -0.13418937 </v>
   <v>      -0.40843172       0.40398217      -0.14832557 </v>
   <v>      -0.56534602       0.14042269      -0.15475057 </v>
   <v>       0.05366039      -0.52049017      -0.06428829 </v>
   <v>       0.40884291       0.41843510      -0.15109971 </v>
   <v>      -0.13820194      -0.54739995      -0.14791817 </v>
   <v>       0.53619426       0.14495997      -0.12738695 </v>
   <v>      -0.42212763       0.38150700      -0.13381554 </v>
   <v>      -0.53103588       0.16661392      -0.13309388 </v>
   <v>       0.12719235      -0.53522883      -0.12264728 </v>
   <v>       0.39809166       0.35159054      -0.10013294 </v>
   <v>       0.02035417       0.02011571       0.30353103 </v>
   <v>      -0.00404495      -0.00274000       0.28212842 </v>
   <v>      -0.03077870      -0.00844673       0.28054712 </v>
   <v>      -0.02732758      -0.00350650       0.26401650 </v>
   <v>      -0.03873957      -0.01939309       0.26564003 </v>
   <v>      -0.00044882       0.00790482       0.29506942 </v>
  </varray>
  <varray name="stress" >
   <v>    -103.76257465      -0.03751704       0.01015758 </v>
   <v>      -0.03751730    -103.75885214       0.00230327 </v>
   <v>       0.01015779       0.00230326     -94.24842884 </v>
  </varray>
  <energy>
   <i name="e_fr_energy">   -679.16317960 </i>
   <i name="e_wo_entrp">   -679.16317960 </i>
   <i name="e_0_energy">      0.00000000 </i>
  </energy>
  <time name="totalsc">  611.20  611.45</time>
 </calculation>
 <calculation>
  <scstep>
   <time name="dav">   32.45   32.45</time>
   <time name="total">   33.52   33.52</time>
   <energy>
    <i name="alphaZ">   1562.80005997 </i>
    <i name="ewald"> -26333.27799743 </i>
    <i name="hartreedc"> -11229.33152462 </i>
    <i name="XCdc">   1504.97816683 </i>
    <i name="pawpsdc">  43575.13254967 </i>
    <i name="pawaedc"> -42908.73068593 </i>
    <i name="eentropy">      0.00000000 </i>
    <i name="bandstr">  -3931.76004643 </i>
    <i name="atom">  37080.84622879 </i>
    <i name="e_fr_energy">   -679.34324915 </i>
    <i name="e_wo_entrp">   -679.34324915 </i>
    <i name="e_0_energy">   -679.34324915 </i>
   </energy>
  </scstep>
  <scstep>
   <time name="diag">    3.96    3.96</time>
   <time name="diis">   13.35   13.35</time>
   <time name="orth">    0.56    0.56</time>
   <time name="total">   18.92   18.93</time>
   <energy>
    <i name="e_fr_energy">   -679.38441112 </i>
    <i name="e_wo_entrp">   -679.38441112 </i>
    <i name="e_0_energy">   -679.38441112 </i>
   </energy>
  </scstep>
  <scstep>
   <time name="diag">    3.97    3.97</time>
   <time name="diis">   14.95   14.94</time>
   <time name="orth">    0.56    0.56</time>
   <time name="total">   20.53   20.53</time>
   <energy>
    <i name="e_fr_energy">   -679.37888823 </i>
    <i name="e_wo_entrp">   -679.37888823 </i>
    <i name="e_0_energy">   -679.37888823 </i>
   </energy>
  </scstep>
  <scstep>
   <time name="diag">    3.96    3.96</time>
   <time name="diis">   18.88   18.88</time>
   <time name="orth">    0.56    0.56</time>
   <time name="total">   24.46   24.47</time>
   <energy>
    <i name="e_fr_energy">   -679.37882028 </i>
    <i name="e_wo_entrp">   -679.37882028 </i>
    <i name="e_0_energy">   -679.37882028 </i>
   </energy>
  </scstep>
  <scstep>
   <time name="diag">    3.98    3.98</time>
   <time name="diis">   19.09   19.08</time>
   <time name="orth">    0.56    0.56</time>
   <time name="total">   24.68   24.69</time>
   <energy>
    <i name="e_fr_energy">   -679.37888061 </i>
    <i name="e_wo_entrp">   -679.37888061 </i>
    <i name="e_0_energy">   -679.37888061 </i>
   </energy>
  </scstep>
  <scstep>
   <time name="diag">    3.98    3.98</time>
   <time name="diis">   19.98   19.98</time>
   <time name="orth">    0.56    0.56</time>
   <time name="total">   25.57   25.59</time>
   <energy>
    <i name="e_fr_energy">   -679.37892558 </i>
    <i name="e_wo_entrp">   -679.37892558 </i>
    <i name="e_0_energy">   -679.37892558 </i>
   </energy>
  </scstep>
  <scstep>
   <time name="diag">    3.98    3.98</time>
   <time name="diis">   19.97   19.97</time>
   <time name="orth">    0.56    0.56</time>
   <time name="total">   25.56   25.58</time>
   <energy>
    <i name="e_fr_energy">   -679.37894173 </i>
    <i name="e_wo_entrp">   -679.37894173 </i>
    <i name="e_0_energy">   -679.37894173 </i>
   </energy>
  </scstep>
  <scstep>
   <time name="diag">    3.98    3.98</time>
   <time name="diis">   19.24   19.24</time>
   <time name="orth">    0.56    0.56</time>
   <time name="total">   24.83   24.85</time>
   <energy>
    <i name="e_fr_energy">   -679.37894907 </i>
    <i name="e_wo_entrp">   -679.37894907 </i>
    <i name="e_0_energy">   -679.37894907 </i>
   </energy>
  </scstep>
  <scstep>
   <time name="diag">    3.98    3.98</time>
   <time name="diis">   18.26   18.26</time>
   <time name="orth">    0.56    0.56</time>
   <time name="total">   23.86   23.86</time>
   <energy>
    <i name="e_fr_energy">   -679.37895266 </i>
    <i name="e_wo_entrp">   -679.37895266 </i>
    <i name="e_0_energy">   -679.37895266 </i>
   </energy>
  </scstep>
  <scstep>
   <time name="diag">    3.97    3.97</time>
   <time name="diis">   15.77   15.77</time>
   <time name="orth">    0.56    0.56</time>
   <time name="total">   21.36   21.37</time>
   <energy>
    <i name="e_fr_energy">   -679.37895373 </i>
    <i name="e_wo_entrp">   -679.37895373 </i>
    <i name="e_0_energy">   -679.37895373 </i>
   </energy>
  </scstep>
  <scstep>
   <time name="diag">    3.96    3.96</time>
   <time name="diis">   13.95   13.95</time>
   <time name="orth">    0.56    0.56</time>
   <time name="total">   18.54   18.56</time>
   <energy>
    <i name="alphaZ">   1562.80005997 </i>
    <i name="ewald"> -26333.27799743 </i>
    <i name="hartreedc"> -11237.50465883 </i>
    <i name="XCdc">   1505.28534244 </i>
    <i name="pawpsdc">  43895.90826290 </i>
    <i name="pawaedc"> -43229.04526683 </i>
    <i name="eentropy">      0.00000000 </i>
    <i name="bandstr">  -3924.39092538 </i>
    <i name="atom">  37080.84622879 </i>
    <i name="e_fr_energy">   -679.37895437 </i>
    <i name="e_wo_entrp">   -679.37895437 </i>
    <i name="e_0_energy">   -679.37895437 </i>
   </energy>
  </scstep>
  <structure>
   <crystal>
    <varray name="basis" >
     <v>       5.21612163      -3.00991979       9.34804373 </v>
     <v>       0.00249134       6.02141424       9.34716605 </v>
     <v>      -5.21344016      -3.01124838       9.34612339 </v>
    </varray>
    <i name="volume">    880.49580369 </i>
    <varray name="rec_basis" >
     <v>       0.09588180      -0.05537127       0.03564444 </v>
     <v>      -0.00002067       0.11071715       0.03566067 </v>
     <v>      -0.09588082      -0.05534685       0.03567982 </v>
    </varray>
   </crystal>
   <varray name="positions" >
    <v>       0.13834464       0.13936024       0.13984154 </v>
    <v>       0.39146485       0.38999615       0.39084985 </v>
    <v>       0.14028490       0.14032100       0.64091880 </v>
    <v>       0.39173714       0.39088781       0.89060126 </v>
    <v>       0.14005841       0.63913797       0.13990312 </v>
    <v>       0.38998476       0.89022906       0.39046278 </v>
    <v>       0.14027427       0.63856535       0.63941888 </v>
    <v>       0.39066981       0.89122633       0.89016993 </v>
    <v>       0.63968376       0.14081976       0.13850806 </v>
    <v>       0.89082362       0.39199024       0.39127892 </v>
    <v>       0.64044573       0.13979678       0.63895381 </v>
    <v>       0.89104534       0.39188587       0.88994251 </v>
    <v>       0.63986599       0.64050649       0.14005866 </v>
    <v>       0.88951816       0.89019840       0.39154314 </v>
    <v>       0.64095316       0.64008622       0.64144694 </v>
    <v>       0.89103049       0.89076805       0.89134539 </v>
    <v>       0.99977440       0.00177089       0.99682528 </v>
    <v>       0.99955073       0.00023023       0.49775554 </v>
    <v>       0.25192950       0.24907812       0.74976938 </v>
    <v>       0.99760100       0.49808175       0.00111367 </v>
    <v>       0.00073806       0.49723497       0.50113556 </v>
    <v>       0.50010240       0.99747842       0.00111670 </v>
    <v>       0.49972739       0.50026063       0.99795376 </v>
    <v>       0.75123679       0.74957171       0.25004535 </v>
    <v>       0.50003631       0.50154412       0.49662311 </v>
    <v>       0.74959039       0.75118046       0.74816467 </v>
    <v>       0.05653546       0.18033133       0.36104732 </v>
    <v>       0.36100811       0.05647743       0.18050815 </v>
    <v>       0.17984366       0.36084571       0.05670242 </v>
    <v>       0.43063156       0.30596555       0.11066091 </v>
    <v>       0.10993275       0.43108065       0.30588694 </v>
    <v>       0.30648913       0.11083731       0.43055478 </v>
    <v>       0.05554843       0.18056912       0.86093131 </v>
    <v>       0.36001167       0.05656241       0.68104974 </v>
    <v>       0.18062239       0.36125165       0.55573185 </v>
    <v>       0.43080572       0.30536416       0.61161829 </v>
    <v>       0.11120360       0.42983732       0.80559146 </v>
    <v>       0.30534533       0.11134928       0.93095575 </v>
    <v>       0.05639937       0.67995643       0.36121939 </v>
    <v>       0.36102546       0.55653064       0.17999304 </v>
    <v>       0.17958834       0.86133045       0.05661565 </v>
    <v>       0.43002197       0.80691525       0.11036715 </v>
    <v>       0.11070829       0.93025651       0.30668400 </v>
    <v>       0.30651521       0.61018127       0.43046976 </v>
    <v>       0.05677661       0.67903847       0.86111961 </v>
    <v>       0.36123454       0.55656869       0.67957554 </v>
    <v>       0.17966618       0.86116452       0.55657239 </v>
    <v>       0.43018506       0.80672196       0.61036237 </v>
    <v>       0.11028317       0.92980936       0.80683242 </v>
    <v>       0.30611225       0.61029107       0.93059587 </v>
    <v>       0.55702997       0.18003450       0.36092719 </v>
    <v>       0.86141132       0.05623198       0.17981637 </v>
    <v>       0.68010753       0.36115206       0.05639025 </v>
    <v>       0.93003665       0.30666677       0.11021276 </v>
    <v>       0.61068323       0.43042934       0.30657031 </v>
    <v>       0.80682662       0.11032786       0.43040536 </v>
    <v>       0.55658976       0.17933913       0.86124747 </v>
    <v>       0.86102567       0.05635516       0.67970204 </v>
    <v>       0.67974778       0.36126843       0.55657966 </v>
    <v>       0.93033216       0.30643417       0.61034344 </v>
    <v>       0.61063334       0.43005198       0.80655833 </v>
    <v>       0.80643223       0.10985086       0.93051796 </v>
    <v>       0.55570104       0.68086132       0.36065272 </v>
    <v>       0.86062919       0.55651792       0.17953590 </v>
    <v>       0.68010519       0.86103840       0.05591905 </v>
[...]
       <r>    1.3873    1.0000 </r>
       <r>    1.4035    1.0000 </r>
       <r>    1.4305    1.0000 </r>
       <r>    1.4783    1.0000 </r>
       <r>    1.4946    1.0000 </r>
       <r>    1.5121    1.0000 </r>
       <r>    1.5166    1.0000 </r>
       <r>    1.5293    1.0000 </r>
       <r>    1.5695    1.0000 </r>
       <r>    1.5985    1.0000 </r>
       <r>    1.6435    1.0000 </r>
       <r>    1.6836    1.0000 </r>
       <r>    1.6874    1.0000 </r>
       <r>    1.7062    1.0000 </r>
       <r>    1.7198    1.0000 </r>
       <r>    1.7305    1.0000 </r>
       <r>    1.7630    1.0000 </r>
       <r>    1.7775    1.0000 </r>
       <r>    1.8055    1.0000 </r>
       <r>    1.8105    1.0000 </r>
       <r>    1.8168    1.0000 </r>
       <r>    1.8403    1.0000 </r>
       <r>    1.8492    1.0000 </r>
       <r>    1.8799    1.0000 </r>
       <r>    1.9344    1.0000 </r>
       <r>    1.9461    1.0000 </r>
       <r>    1.9575    1.0000 </r>
       <r>    1.9669    1.0000 </r>
       <r>    1.9779    1.0000 </r>
       <r>    1.9918    1.0000 </r>
       <r>    2.0182    1.0000 </r>
       <r>    2.0514    1.0000 </r>
       <r>    2.0589    1.0000 </r>
       <r>    2.0829    1.0000 </r>
       <r>    2.1015    1.0000 </r>
       <r>    2.1101    1.0000 </r>
       <r>    2.2704    1.0000 </r>
       <r>    2.2926    1.0000 </r>
       <r>    2.2964    1.0000 </r>
       <r>    2.3129    1.0000 </r>
       <r>    2.3270    1.0000 </r>
       <r>    2.3391    1.0000 </r>
       <r>    2.3470    1.0000 </r>
       <r>    2.3524    1.0000 </r>
       <r>    2.3628    1.0000 </r>
       <r>    2.4119    1.0000 </r>
       <r>    6.0174    0.0000 </r>
       <r>    6.0285    0.0000 </r>
       <r>    6.1922    0.0000 </r>
       <r>    6.2269    0.0000 </r>
       <r>    6.2693    0.0000 </r>
       <r>    6.2901    0.0000 </r>
       <r>    6.3247    0.0000 </r>
       <r>    6.3653    0.0000 </r>
       <r>    6.3885    0.0000 </r>
       <r>    6.3997    0.0000 </r>
       <r>    6.4279    0.0000 </r>
       <r>    6.4411    0.0000 </r>
       <r>    6.4658    0.0000 </r>
       <r>    6.4996    0.0000 </r>
       <r>    6.5103    0.0000 </r>
       <r>    6.5667    0.0000 </r>
       <r>    6.5974    0.0000 </r>
       <r>    6.7494    0.0000 </r>
       <r>    6.7905    0.0000 </r>
       <r>    6.8152    0.0000 </r>
       <r>    6.8441    0.0000 </r>
       <r>    6.9304    0.0000 </r>
       <r>    7.0182    0.0000 </r>
       <r>    7.0507    0.0000 </r>
       <r>    7.2007    0.0000 </r>
       <r>    7.2419    0.0000 </r>
       <r>    7.2878    0.0000 </r>
       <r>    7.3448    0.0000 </r>
       <r>    7.3676    0.0000 </r>
       <r>    7.3977    0.0000 </r>
       <r>    7.4781    0.0000 </r>
       <r>    7.5021    0.0000 </r>
       <r>    7.5673    0.0000 </r>
       <r>    7.6397    0.0000 </r>
       <r>    7.6671    0.0000 </r>
       <r>    7.6802    0.0000 </r>
       <r>    7.7174    0.0000 </r>
       <r>    7.7527    0.0000 </r>
       <r>    7.7917    0.0000 </r>
       <r>    7.8349    0.0000 </r>
       <r>    7.9137    0.0000 </r>
       <r>    7.9518    0.0000 </r>
       <r>    8.0103    0.0000 </r>
       <r>    8.0346    0.0000 </r>
       <r>    8.0521    0.0000 </r>
       <r>    8.0796    0.0000 </r>
       <r>    8.1161    0.0000 </r>
       <r>    8.2110    0.0000 </r>
       <r>    9.6380    0.0000 </r>
       <r>    9.8953    0.0000 </r>
       <r>    9.9219    0.0000 </r>
       <r>   10.0082    0.0000 </r>
       <r>   10.0554    0.0000 </r>
       <r>   10.0909    0.0000 </r>
       <r>   10.1707    0.0000 </r>
       <r>   10.2104    0.0000 </r>
      </set>
      <set comment="kpoint 36">
       <r>  -51.7678    1.0000 </r>
       <r>  -51.7613    1.0000 </r>
       <r>  -51.7431    1.0000 </r>
       <r>  -51.7401    1.0000 </r>
       <r>  -51.7254    1.0000 </r>
       <r>  -51.7228    1.0000 </r>
       <r>  -51.6979    1.0000 </r>
       <r>  -51.6957    1.0000 </r>
       <r>  -51.6934    1.0000 </r>
       <r>  -51.6701    1.0000 </r>
       <r>  -28.0407    1.0000 </r>
       <r>  -28.0380    1.0000 </r>
       <r>  -28.0372    1.0000 </r>
       <r>  -28.0285    1.0000 </r>
       <r>  -28.0244    1.0000 </r>
       <r>  -28.0152    1.0000 </r>
       <r>  -28.0053    1.0000 </r>
       <r>  -28.0035    1.0000 </r>
       <r>  -27.9987    1.0000 </r>
       <r>  -27.9902    1.0000 </r>
       <r>  -27.9752    1.0000 </r>
       <r>  -27.9657    1.0000 </r>
       <r>  -27.9631    1.0000 </r>
       <r>  -27.9608    1.0000 </r>
       <r>  -27.9566    1.0000 </r>
       <r>  -27.9460    1.0000 </r>
       <r>  -27.9439    1.0000 </r>
       <r>  -27.9379    1.0000 </r>
       <r>  -27.9269    1.0000 </r>
       <r>  -27.9244    1.0000 </r>
       <r>  -27.9099    1.0000 </r>
       <r>  -27.9075    1.0000 </r>
       <r>  -27.8940    1.0000 </r>
       <r>  -27.8845    1.0000 </r>
       <r>  -27.8832    1.0000 </r>
       <r>  -27.8793    1.0000 </r>
       <r>  -27.8630    1.0000 </r>
       <r>  -27.8408    1.0000 </r>
       <r>  -27.8345    1.0000 </r>
       <r>  -27.8199    1.0000 </r>
       <r>  -14.4075    1.0000 </r>
       <r>  -14.3544    1.0000 </r>
       <r>  -14.1586    1.0000 </r>
       <r>  -14.1237    1.0000 </r>
       <r>  -14.1106    1.0000 </r>
       <r>  -14.0457    1.0000 </r>
       <r>  -14.0202    1.0000 </r>
       <r>  -13.9934    1.0000 </r>
       <r>  -13.8458    1.0000 </r>
       <r>  -13.8107    1.0000 </r>
       <r>  -13.7942    1.0000 </r>
       <r>  -13.7892    1.0000 </r>
       <r>  -13.7879    1.0000 </r>
       <r>  -13.7680    1.0000 </r>
       <r>  -13.6982    1.0000 </r>
       <r>  -13.6918    1.0000 </r>
       <r>  -13.6844    1.0000 </r>
       <r>  -13.6723    1.0000 </r>
       <r>  -13.6524    1.0000 </r>
       <r>  -13.6384    1.0000 </r>
       <r>  -13.6345    1.0000 </r>
       <r>  -13.6222    1.0000 </r>
       <r>  -13.6196    1.0000 </r>
       <r>  -13.6039    1.0000 </r>
       <r>  -13.2954    1.0000 </r>
       <r>  -13.2554    1.0000 </r>
       <r>  -13.2334    1.0000 </r>
       <r>  -13.2073    1.0000 </r>
       <r>  -13.1998    1.0000 </r>
       <r>  -13.1933    1.0000 </r>
       <r>  -13.1851    1.0000 </r>
       <r>  -13.1756    1.0000 </r>
       <r>  -13.1604    1.0000 </r>
       <r>  -13.1528    1.0000 </r>
       <r>  -13.1456    1.0000 </r>
       <r>  -13.1253    1.0000 </r>
       <r>  -13.1181    1.0000 </r>
       <r>  -13.0886    1.0000 </r>
       <r>  -13.0756    1.0000 </r>
       <r>  -13.0628    1.0000 </r>
       <r>  -13.0615    1.0000 </r>
       <r>  -13.0536    1.0000 </r>
       <r>  -13.0407    1.0000 </r>
       <r>  -12.9953    1.0000 </r>
       <r>  -12.9635    1.0000 </r>
       <r>  -12.9446    1.0000 </r>
       <r>  -12.9264    1.0000 </r>
       <r>  -12.9131    1.0000 </r>
       <r>   -2.1030    1.0000 </r>
       <r>   -2.0919    1.0000 </r>
       <r>   -2.0841    1.0000 </r>
       <r>   -2.0563    1.0000 </r>
       <r>   -1.9997    1.0000 </r>
       <r>   -1.9617    1.0000 </r>
       <r>   -1.9529    1.0000 </r>
       <r>   -1.8918    1.0000 </r>
       <r>   -1.8763    1.0000 </r>
       <r>   -1.8693    1.0000 </r>
       <r>   -1.8623    1.0000 </r>
       <r>   -1.8496    1.0000 </r>
       <r>   -1.8433    1.0000 </r>
       <r>   -1.8397    1.0000 </r>
       <r>   -1.8260    1.0000 </r>
       <r>   -1.8127    1.0000 </r>
       <r>   -1.8008    1.0000 </r>
       <r>   -1.7856    1.0000 </r>
       <r>   -1.7836    1.0000 </r>
       <r>   -1.7733    1.0000 </r>
       <r>   -1.7638    1.0000 </r>
       <r>   -1.7445    1.0000 </r>
       <r>   -1.6250    1.0000 </r>
       <r>   -1.5883    1.0000 </r>
       <r>   -1.5531    1.0000 </r>
       <r>   -1.5342    1.0000 </r>
       <r>   -1.5255    1.0000 </r>
       <r>   -1.5152    1.0000 </r>
       <r>   -1.4971    1.0000 </r>
       <r>   -1.4887    1.0000 </r>
       <r>   -1.3607    1.0000 </r>
       <r>   -1.3577    1.0000 </r>
       <r>   -1.3343    1.0000 </r>
       <r>   -1.3312    1.0000 </r>
       <r>   -1.0283    1.0000 </r>
       <r>   -0.9439    1.0000 </r>
       <r>   -0.8529    1.0000 </r>
       <r>   -0.8403    1.0000 </r>
       <r>   -0.8194    1.0000 </r>
       <r>   -0.8153    1.0000 </r>
       <r>   -0.8034    1.0000 </r>
       <r>   -0.7955    1.0000 </r>
       <r>   -0.5892    1.0000 </r>
       <r>   -0.5668    1.0000 </r>
       <r>   -0.5633    1.0000 </r>
       <r>   -0.5547    1.0000 </r>
       <r>   -0.5503    1.0000 </r>
       <r>   -0.5431    1.0000 </r>
       <r>   -0.3365    1.0000 </r>
       <r>   -0.3144    1.0000 </r>
       <r>   -0.3065    1.0000 </r>
       <r>   -0.2927    1.0000 </r>
       <r>   -0.2851    1.0000 </r>
       <r>   -0.2758    1.0000 </r>
       <r>   -0.1753    1.0000 </r>
       <r>   -0.1707    1.0000 </r>
       <r>   -0.1651    1.0000 </r>
       <r>   -0.1625    1.0000 </r>
       <r>   -0.1350    1.0000 </r>
       <r>   -0.1289    1.0000 </r>
       <r>   -0.0648    1.0000 </r>
       <r>   -0.0470    1.0000 </r>
       <r>   -0.0413    1.0000 </r>
       <r>   -0.0371    1.0000 </r>
       <r>   -0.0312    1.0000 </r>
       <r>   -0.0275    1.0000 </r>
       <r>    0.2997    1.0000 </r>
       <r>    0.3180    1.0000 </r>
       <r>    0.3297    1.0000 </r>
       <r>    0.3599    1.0000 </r>
       <r>    0.3656    1.0000 </r>
       <r>    0.3899    1.0000 </r>
       <r>    0.5292    1.0000 </r>
       <r>    0.5395    1.0000 </r>
       <r>    0.5435    1.0000 </r>
       <r>    0.5615    1.0000 </r>
       <r>    0.5741    1.0000 </r>
       <r>    0.5875    1.0000 </r>
       <r>    0.9143    1.0000 </r>
       <r>    0.9193    1.0000 </r>
       <r>    0.9447    1.0000 </r>
       <r>    0.9500    1.0000 </r>
       <r>    1.0280    1.0000 </r>
       <r>    1.0424    1.0000 </r>
       <r>    1.0458    1.0000 </r>
       <r>    1.0628    1.0000 </r>
       <r>    1.0737    1.0000 </r>
       <r>    1.0827    1.0000 </r>
       <r>    1.0836    1.0000 </r>
       <r>    1.1080    1.0000 </r>
       <r>    1.1144    1.0000 </r>
       <r>    1.1193    1.0000 </r>
       <r>    1.1318    1.0000 </r>
       <r>    1.1536    1.0000 </r>
       <r>    1.1856    1.0000 </r>
       <r>    1.2104    1.0000 </r>
       <r>    1.4532    1.0000 </r>
       <r>    1.4658    1.0000 </r>
       <r>    1.4695    1.0000 </r>
       <r>    1.4758    1.0000 </r>
       <r>    1.4998    1.0000 </r>
       <r>    1.5037    1.0000 </r>
       <r>    1.5083    1.0000 </r>
       <r>    1.5284    1.0000 </r>
       <r>    1.5752    1.0000 </r>
       <r>    1.5808    1.0000 </r>
       <r>    1.5825    1.0000 </r>
       <r>    1.5908    1.0000 </r>
       <r>    1.5929    1.0000 </r>
       <r>    1.6050    1.0000 </r>
       <r>    1.7173    1.0000 </r>
       <r>    1.7180    1.0000 </r>
       <r>    1.7229    1.0000 </r>
       <r>    1.7254    1.0000 </r>
       <r>    1.7297    1.0000 </r>
       <r>    1.7376    1.0000 </r>
       <r>    1.8002    1.0000 </r>
       <r>    1.8105    1.0000 </r>
       <r>    1.8249    1.0000 </r>
       <r>    1.8292    1.0000 </r>
       <r>    1.8351    1.0000 </r>
       <r>    1.8420    1.0000 </r>
       <r>    1.8469    1.0000 </r>
       <r>    1.8551    1.0000 </r>
       <r>    1.8619    1.0000 </r>
       <r>    1.8679    1.0000 </r>
       <r>    1.9526    1.0000 </r>
       <r>    1.9585    1.0000 </r>
       <r>    1.9622    1.0000 </r>
       <r>    1.9737    1.0000 </r>
       <r>    1.9791    1.0000 </r>
       <r>    1.9813    1.0000 </r>
       <r>    2.0202    1.0000 </r>
       <r>    2.0257    1.0000 </r>
       <r>    2.3333    1.0000 </r>
       <r>    2.3399    1.0000 </r>
       <r>    2.3453    1.0000 </r>
       <r>    2.3512    1.0000 </r>
       <r>    2.3598    1.0000 </r>
       <r>    2.3672    1.0000 </r>
       <r>    2.3960    1.0000 </r>
       <r>    2.4006    1.0000 </r>
       <r>    2.4282    1.0000 </r>
       <r>    2.4352    1.0000 </r>
       <r>    6.1712    0.0000 </r>
       <r>    6.1947    0.0000 </r>
       <r>    6.2114    0.0000 </r>
       <r>    6.2446    0.0000 </r>
       <r>    6.2699    0.0000 </r>
       <r>    6.2812    0.0000 </r>
       <r>    6.2914    0.0000 </r>
       <r>    6.3125    0.0000 </r>
       <r>    6.3424    0.0000 </r>
       <r>    6.3748    0.0000 </r>
       <r>    6.3841    0.0000 </r>
       <r>    6.4104    0.0000 </r>
       <r>    6.4209    0.0000 </r>
       <r>    6.4410    0.0000 </r>
       <r>    6.4507    0.0000 </r>
       <r>    6.4803    0.0000 </r>
       <r>    6.5171    0.0000 </r>
       <r>    6.6039    0.0000 </r>
       <r>    6.8700    0.0000 </r>
       <r>    6.8799    0.0000 </r>
       <r>    6.8824    0.0000 </r>
       <r>    6.9498    0.0000 </r>
       <r>    7.0070    0.0000 </r>
       <r>    7.0383    0.0000 </r>
       <r>    7.2506    0.0000 </r>
       <r>    7.2954    0.0000 </r>
       <r>    7.3126    0.0000 </r>
       <r>    7.3441    0.0000 </r>
       <r>    7.3783    0.0000 </r>
       <r>    7.4195    0.0000 </r>
       <r>    7.4613    0.0000 </r>
       <r>    7.5007    0.0000 </r>
       <r>    7.5758    0.0000 </r>
       <r>    7.6383    0.0000 </r>
       <r>    7.6458    0.0000 </r>
       <r>    7.7089    0.0000 </r>
       <r>    7.7875    0.0000 </r>
       <r>    7.8432    0.0000 </r>
       <r>    7.8642    0.0000 </r>
       <r>    7.8971    0.0000 </r>
       <r>    7.9259    0.0000 </r>
       <r>    7.9394    0.0000 </r>
       <r>    7.9972    0.0000 </r>
       <r>    8.0126    0.0000 </r>
       <r>    8.0294    0.0000 </r>
       <r>    8.0796    0.0000 </r>
       <r>    8.0990    0.0000 </r>
       <r>    8.1685    0.0000 </r>
       <r>    9.8031    0.0000 </r>
       <r>    9.8338    0.0000 </r>
       <r>    9.9537    0.0000 </r>
       <r>   10.0015    0.0000 </r>
       <r>   10.0497    0.0000 </r>
       <r>   10.1472    0.0000 </r>
       <r>   10.1768    0.0000 </r>
       <r>   10.2744    0.0000 </r>
      </set>
     </set>
    </set>
   </array>
  </eigenvalues>
  <separator name="orbital magnetization" >
   <v name="MAGDIPOLOUT">      0.00000000      0.00000000      0.00000000</v>
  </separator>
 </calculation>
 <structure name="finalpos" >
  <crystal>
   <varray name="basis" >
    <v>       5.22903184      -3.01719412       9.30341455 </v>
    <v>       0.00287902       6.03585503       9.30229255 </v>
    <v>      -5.22564414      -3.01856261       9.30110929 </v>
   </varray>
   <i name="volume">    880.49580369 </i>
   <varray name="rec_basis" >
    <v>       0.09565031      -0.05523848       0.03581225 </v>
    <v>      -0.00002236       0.11045155       0.03583316 </v>
    <v>      -0.09565166      -0.05521344       0.03585521 </v>
   </varray>
  </crystal>
  <varray name="positions" >
   <v>       0.13797954       0.13932373       0.13979489 </v>
   <v>       0.39199251       0.39012970       0.39094523 </v>
   <v>       0.14060339       0.14031697       0.64100717 </v>
   <v>       0.39237263       0.39148488       0.89087330 </v>
   <v>       0.14026199       0.63875268       0.14002508 </v>
   <v>       0.39012601       0.89028697       0.39087486 </v>
   <v>       0.14054351       0.63837632       0.63930524 </v>
   <v>       0.39096338       0.89160479       0.89006199 </v>
   <v>       0.63949942       0.14138947       0.13828463 </v>
   <v>       0.89138683       0.39215399       0.39184182 </v>
   <v>       0.64071886       0.13995058       0.63854768 </v>
   <v>       0.89139235       0.39213147       0.89024632 </v>
   <v>       0.63964602       0.64055291       0.14034050 </v>
   <v>       0.88941742       0.89052656       0.39207003 </v>
   <v>       0.64117263       0.64027471       0.64178790 </v>
   <v>       0.89124639       0.89145821       0.89165885 </v>
   <v>       0.99977204       0.00161190       0.99705079 </v>
   <v>       0.99958283       0.00022727       0.49773363 </v>
   <v>       0.25197000       0.24904621       0.74971252 </v>
   <v>       0.99780340       0.49806233       0.00115578 </v>
   <v>       0.00087426       0.49734272       0.50098560 </v>
   <v>       0.49996240       0.99774362       0.00110250 </v>
   <v>       0.49962442       0.50021535       0.99810313 </v>
   <v>       0.75100325       0.74968147       0.25013759 </v>
   <v>       0.50004810       0.50140694       0.49679488 </v>
   <v>       0.74959682       0.75118122       0.74824256 </v>
   <v>       0.06146977       0.17491309       0.36146011 </v>
   <v>       0.36166093       0.06083082       0.17556744 </v>
   <v>       0.17459943       0.36099628       0.06157205 </v>
   <v>       0.42568480       0.31033018       0.11093285 </v>
   <v>       0.11028533       0.42610735       0.31011926 </v>
   <v>       0.31117979       0.11121646       0.42549120 </v>
   <v>       0.05992556       0.17551412       0.86135027 </v>
   <v>       0.36041781       0.06092427       0.67608946 </v>
   <v>       0.17585141       0.36155832       0.55999378 </v>
   <v>       0.42613002       0.30941804       0.61221135 </v>
   <v>       0.11181537       0.42495126       0.80967352 </v>
   <v>       0.30948510       0.11170126       0.92625107 </v>
   <v>       0.06103084       0.67482164       0.36162959 </v>
   <v>       0.36124666       0.56146375       0.17462402 </v>
   <v>       0.17427800       0.86196163       0.06129620 </v>
   <v>       0.42506090       0.81129863       0.11070730 </v>
   <v>       0.11104639       0.92540937       0.31102926 </v>
   <v>       0.31080544       0.61042765       0.42558420 </v>
   <v>       0.06158856       0.67362616       0.86167382 </v>
   <v>       0.36158267       0.56153299       0.67418711 </v>
   <v>       0.17429378       0.86168589       0.56131680 </v>
   <v>       0.42485381       0.81160933       0.61052574 </v>
   <v>       0.11040290       0.92471187       0.81153214 </v>
   <v>       0.31062980       0.61058472       0.92546405 </v>
   <v>       0.56167683       0.17488459       0.36141685 </v>
   <v>       0.86163750       0.06110606       0.17455312 </v>
   <v>       0.67461424       0.36164097       0.06126872 </v>
   <v>       0.92497845       0.31111751       0.11043839 </v>
   <v>       0.61088250       0.42538949       0.31118293 </v>
   <v>       0.81126423       0.11064952       0.42540588 </v>
   <v>       0.56121139       0.17415547       0.86180179 </v>
   <v>       0.86128918       0.06131720       0.67420576 </v>
   <v>       0.67439782       0.36192915       0.56130337 </v>
   <v>       0.92538268       0.31086443       0.61061975 </v>
   <v>       0.61099429       0.42504681       0.81104578 </v>
   <v>       0.81075615       0.11007708       0.92559994 </v>
   <v>       0.56001822       0.67587747       0.36102992 </v>
   <v>       0.86111477       0.56096407       0.17442262 </v>
   <v>       0.67498894       0.86148052       0.06036891 </v>
   <v>       0.92547913       0.80920493       0.11216515 </v>
   <v>       0.61152588       0.92587764       0.31019884 </v>
   <v>       0.80942848       0.61174774       0.42529207 </v>
   <v>       0.56035455       0.67463136       0.86177348 </v>
   <v>       0.86194735       0.56013731       0.67457300 </v>
   <v>       0.67497032       0.86041293       0.56125701 </v>
   <v>       0.92556076       0.80994443       0.61164598 </v>
   <v>       0.61121633       0.92554176       0.81011148 </v>
   <v>       0.81053528       0.61184981       0.92412302 </v>
   <v>       0.24883886       0.24980044       0.24786232 </v>
   <v>       0.24822880       0.74827520       0.24861794 </v>
   <v>       0.24761865       0.74771371       0.74939053 </v>
   <v>       0.74735263       0.24788815       0.24936796 </v>
   <v>       0.49696004       0.99785263       0.50021010 </v>
   <v>       0.74854551       0.24848157       0.74843475 </v>
  </varray>
 </structure>
</modeling>
