Li(NbTa)O_3                             
           1
     5.217746   -3.010851    9.342148
     0.002505    6.023309    9.341274
    -5.215105   -3.012219    9.340240
   Li   Nb   O    Ta
  16  10  48   6
Li(NbTa)O_3                             
           1
     5.217746   -3.010851    9.342148
     0.002505    6.023309    9.341274
    -5.215105   -3.012219    9.340240
   Li   Nb   O    Ta
  16  10  48   6
Direct configuration=     1
   0.13834752  0.13936271  0.13984335
   0.39146324  0.38999630  0.39085144
   0.14028321  0.14032414  0.64092124
   0.39173469  0.39088444  0.89059988
   0.14005761  0.63914415  0.13990376
   0.38998511  0.89022976  0.39046082
   0.14027342  0.63856692  0.63942290
   0.39066873  0.89122478  0.89017412
   0.63968950  0.14081636  0.13851063
   0.89081879  0.39199278  0.39127564
   0.64044608  0.13979598  0.63895884
   0.89104424  0.39188824  0.88993991
   0.63987068  0.64050964  0.14005521
   0.88952244  0.89019616  0.39154151
   0.64095434  0.64008558  0.64144699
   0.89103108  0.89076076  0.89134632
   0.99959237  0.00150112  0.99675172
   0.99938324  0.00003493  0.49763958
   0.25168038  0.24891337  0.74959517
   0.99749990  0.49794372  0.00086033
   0.00052440  0.49715140  0.50088067
   0.49988249  0.99738472  0.00090131
   0.49954620  0.50003968  0.99785757
   0.75097315  0.74942469  0.24984287
   0.49985523  0.50129758  0.49655071
   0.74940214  0.75095878  0.74802348
   0.05623360  0.18120304  0.36059596
   0.36055215  0.05618073  0.18135900
   0.18067803  0.36043515  0.05635112
   0.43164615  0.30579781  0.11007695
   0.10933811  0.43208088  0.30572184
   0.30616879  0.11038237  0.43144631
   0.05540035  0.18155956  0.86034038
   0.35943918  0.05639020  0.68203455
   0.18159346  0.36067916  0.55556672
   0.43176800  0.30520898  0.61104129
   0.11066152  0.43074915  0.80539644
   0.30515946  0.11079423  0.93190663
   0.05604537  0.68076856  0.36081137
   0.36061507  0.55618152  0.18081868
   0.18040413  0.86090372  0.05629587
   0.43096027  0.80670950  0.10983535
   0.11018018  0.93120277  0.30647725
   0.30631393  0.60963452  0.43142758
   0.05642617  0.67983109  0.86072292
   0.36082901  0.55621291  0.68039936
   0.18050111  0.86073339  0.55625759
   0.43105925  0.80638098  0.60992686
   0.10974163  0.93076687  0.80662904
   0.30592914  0.60973059  0.93157562
   0.55668960  0.18089021  0.36049958
   0.86099568  0.05588109  0.18065345
   0.68094161  0.36072792  0.05606070
   0.93094987  0.30643726  0.10970186
   0.61015919  0.43137998  0.30635721
   0.80662739  0.10979363  0.43135599
   0.55625493  0.18016866  0.86082204
   0.86060460  0.05601788  0.68054061
   0.68056339  0.36084158  0.55626059
   0.93128773  0.30623948  0.60979445
   0.61008613  0.43101265  0.80636497
   0.80623116  0.10929440  0.93147945
   0.55554077  0.68183433  0.36007734
   0.86007458  0.55634829  0.18046819
   0.68107200  0.86046774  0.05575260
   0.93136114  0.80492582  0.11095065
   0.61067752  0.93165297  0.30547765
   0.80503784  0.61074302  0.43111591
   0.55556968  0.68082022  0.86090541
   0.86059508  0.55581627  0.68050717
   0.68097931  0.85972506  0.55655493
   0.93138973  0.80539064  0.61084254
   0.61024363  0.93134011  0.80571432
   0.80584636  0.61083297  0.93009391
   0.24862253  0.24992729  0.24762435
   0.24806756  0.74806531  0.24849505
   0.24752603  0.74745881  0.74934160
   0.74730972  0.24776208  0.24918815
   0.49682629  0.99767190  0.50015434
   0.74834988  0.24827406  0.74832874
Li(NbTa)O_3                             
           1
     5.216122   -3.009920    9.348044
     0.002491    6.021414    9.347166
    -5.213440   -3.011248    9.346123
   Li   Nb   O    Ta
  16  10  48   6
Direct configuration=     2
   0.13834464  0.13936024  0.13984154
   0.39146485  0.38999615  0.39084985
   0.14028490  0.14032100  0.64091880
   0.39173714  0.39088781  0.89060126
   0.14005841  0.63913797  0.13990312
   0.38998476  0.89022906  0.39046278
   0.14027427  0.63856535  0.63941888
   0.39066981  0.89122633  0.89016993
   0.63968376  0.14081976  0.13850806
   0.89082362  0.39199024  0.39127892
   0.64044573  0.13979678  0.63895381
   0.89104534  0.39188587  0.88994251
   0.63986599  0.64050649  0.14005866
   0.88951816  0.89019840  0.39154314
   0.64095316  0.64008622  0.64144694
   0.89103049  0.89076805  0.89134539
   0.99977440  0.00177089  0.99682528
   0.99955073  0.00023023  0.49775554
   0.25192950  0.24907812  0.74976938
   0.99760100  0.49808175  0.00111367
   0.00073806  0.49723497  0.50113556
   0.50010240  0.99747842  0.00111670
   0.49972739  0.50026063  0.99795376
   0.75123679  0.74957171  0.25004535
   0.50003631  0.50154412  0.49662311
   0.74959039  0.75118046  0.74816467
   0.05653546  0.18033133  0.36104732
   0.36100811  0.05647743  0.18050815
   0.17984366  0.36084571  0.05670242
   0.43063156  0.30596555  0.11066091
   0.10993275  0.43108065  0.30588694
   0.30648913  0.11083731  0.43055478
   0.05554843  0.18056912  0.86093131
   0.36001167  0.05656241  0.68104974
   0.18062239  0.36125165  0.55573185
   0.43080572  0.30536416  0.61161829
   0.11120360  0.42983732  0.80559146
   0.30534533  0.11134928  0.93095575
   0.05639937  0.67995643  0.36121939
   0.36102546  0.55653064  0.17999304
   0.17958834  0.86133045  0.05661565
   0.43002197  0.80691525  0.11036715
   0.11070829  0.93025651  0.30668400
   0.30651521  0.61018127  0.43046976
   0.05677661  0.67903847  0.86111961
   0.36123454  0.55656869  0.67957554
   0.17966618  0.86116452  0.55657239
   0.43018506  0.80672196  0.61036237
   0.11028317  0.92980936  0.80683242
   0.30611225  0.61029107  0.93059587
   0.55702997  0.18003450  0.36092719
   0.86141132  0.05623198  0.17981637
   0.68010753  0.36115206  0.05639025
   0.93003665  0.30666677  0.11021276
   0.61068323  0.43042934  0.30657031
   0.80682662  0.11032786  0.43040536
   0.55658976  0.17933913  0.86124747
   0.86102567  0.05635516  0.67970204
   0.67974778  0.36126843  0.55657966
   0.93033216  0.30643417  0.61034344
   0.61063334  0.43005198  0.80655833
   0.80643223  0.10985086  0.93051796
   0.55570104  0.68086132  0.36065272
   0.86062919  0.55651792  0.17953590
   0.68010519  0.86103840  0.05591905
   0.93038449  0.80507101  0.11154250
   0.61113576  0.93078599  0.30578679
   0.80519179  0.61133515  0.43013561
   0.55574015  0.67986701  0.86145904
   0.86115702  0.55598252  0.67958144
   0.68001900  0.86026721  0.55676587
   0.93045088  0.80558896  0.61137702
   0.61078556  0.93041936  0.80590310
   0.80606525  0.61134434  0.92920838
   0.24879133  0.25011626  0.24773684
   0.24820978  0.74820662  0.24864863
   0.24763492  0.74759017  0.74953603
   0.74741091  0.24789281  0.24936529
   0.49692521  0.99777803  0.50036087
   0.74849524  0.24843911  0.74847549
Li(NbTa)O_3                             
           1
     5.212832   -3.007726    9.360929
     0.002862    6.017349    9.359947
    -5.209667   -3.009203    9.358687
   Li   Nb   O    Ta
  16  10  48   6
Direct configuration=     3
   0.13832129  0.13934538  0.13984304
   0.39149707  0.38998846  0.39081808
   0.14030720  0.14028655  0.64088442
   0.39175607  0.39090214  0.89060306
   0.14008004  0.63910511  0.13990646
   0.38997013  0.89024780  0.39048821
   0.14029522  0.63855739  0.63939997
   0.39066127  0.89123367  0.89016049
   0.63965146  0.14084107  0.13851008
   0.89085224  0.39195589  0.39131348
   0.64045825  0.13980911  0.63891995
   0.89103956  0.39187970  0.88997675
   0.63982810  0.64048131  0.14007154
   0.88949839  0.89021744  0.39153813
   0.64092887  0.64010099  0.64144548
   0.89104506  0.89081128  0.89132039
   1.00024588  0.00234191  0.99722335
   1.00006080  0.00082044  0.49808250
   0.25257852  0.24948549  0.75023096
   0.99806918  0.49840420  0.00171303
   0.00133854  0.49757938  0.50162739
   0.50055603  0.99791389  0.00171299
   0.50018009  0.50071759  0.99841864
   0.75174487  0.75013386  0.25061560
   0.50050542  0.50208999  0.49699963
   0.75007349  0.75178292  0.74851409
   0.05754809  0.17773059  0.36225452
   0.36223674  0.05745416  0.17798312
   0.17730063  0.36196593  0.05786199
   0.42788872  0.30672801  0.11203037
   0.11131734  0.42839172  0.30662295
   0.30762780  0.11196900  0.42800532
   0.05617217  0.17784103  0.86238771
   0.36135024  0.05733567  0.67837978
   0.17792636  0.36267122  0.55642932
   0.42815503  0.30601099  0.61306388
   0.11260293  0.42723531  0.80631752
   0.30607444  0.11274223  0.92829959
   0.05754196  0.67747137  0.36235029
   0.36216141  0.55766782  0.17745346
   0.17709590  0.86252705  0.05764608
   0.42745595  0.80777501  0.11162514
   0.11196570  0.92765827  0.30755909
   0.30736704  0.61146558  0.42785500
   0.05790716  0.67659894  0.86223124
   0.36236000  0.55772900  0.67704008
   0.17710663  0.86236632  0.55759718
   0.42766043  0.80791228  0.61144538
   0.11155980  0.92717305  0.80769603
   0.30691284  0.61162314  0.92790644
   0.55820732  0.17753142  0.36201971
   0.86256790  0.05736971  0.17724300
   0.67757061  0.36234192  0.05744201
   0.92748136  0.30758662  0.11143928
   0.61192099  0.42782157  0.30747102
   0.80767772  0.11159151  0.42780387
   0.55767531  0.17681425  0.86242754
   0.86219466  0.05743957  0.67713660
   0.67724523  0.36247447  0.55761168
   0.92771818  0.30728029  0.61163601
   0.61193449  0.42742208  0.80739241
   0.80729173  0.11115801  0.92788236
   0.55635862  0.67814470  0.36208106
   0.86202627  0.55720345  0.17690193
   0.67739798  0.86246132  0.05659462
   0.92769342  0.80566983  0.11302302
   0.61236937  0.92822510  0.30681121
   0.80584253  0.61279522  0.42743245
   0.55641599  0.67715215  0.86287750
   0.86260375  0.55662205  0.67697076
   0.67735759  0.86154962  0.55763534
   0.92780180  0.80635111  0.61273630
   0.61216245  0.92780843  0.80663594
   0.80688551  0.61266710  0.92666264
   0.24924905  0.25042990  0.24814313
   0.24853157  0.74857405  0.24901097
   0.24800626  0.74796608  0.74988473
   0.74762152  0.24818840  0.24982247
   0.49717233  0.99813975  0.50072556
   0.74883532  0.24883166  0.74882007
Li(NbTa)O_3                             
           1
     5.214241   -3.008415    9.356420
     0.003055    6.018841    9.355367
    -5.210811   -3.009962    9.354009
   Li   Nb   O    Ta
  16  10  48   6
Direct configuration=     4
   0.13830470  0.13934304  0.13984654
   0.39151447  0.38998995  0.39080886
   0.14031106  0.14027606  0.64088121
   0.39176644  0.39091380  0.89060495
   0.14009286  0.63909587  0.13990524
   0.38996447  0.89025226  0.39050330
   0.14030202  0.63855572  0.63939662
   0.39066288  0.89123540  0.89016091
   0.63964812  0.14085449  0.13850594
   0.89086001  0.39195075  0.39132778
   0.64046794  0.13981073  0.63890681
   0.89103760  0.39188757  0.88999171
   0.63981882  0.64047140  0.14007215
   0.88949419  0.89022737  0.39154403
   0.64092150  0.64010622  0.64145481
   0.89105927  0.89082402  0.89131246
   1.00014734  0.00214960  0.99724071
   0.99997391  0.00072306  0.49803865
   0.25241441  0.24939459  0.75012927
   0.99806518  0.49834146  0.00155519
   0.00121545  0.49758325  0.50144715
   0.50040498  0.99791552  0.00157849
   0.50008116  0.50057431  0.99841840
   0.75154074  0.75007835  0.25050798
   0.50040082  0.50191130  0.49702221
   0.74997551  0.75164696  0.74846000
   0.05769931  0.17786839  0.36204652
   0.36203054  0.05758693  0.17813278
   0.17740917  0.36176761  0.05800282
   0.42811846  0.30689436  0.11175613
   0.11105194  0.42859616  0.30679176
   0.30777497  0.11175597  0.42814293
   0.05634414  0.17808722  0.86210271
   0.36108369  0.05752043  0.67857850
   0.17818023  0.36237950  0.55660055
   0.42841686  0.30617069  0.61278450
   0.11237438  0.42741694  0.80645217
   0.30623604  0.11246362  0.92854555
   0.05765417  0.67756421  0.36217576
   0.36198815  0.55778504  0.17754255
   0.17718435  0.86236210  0.05776311
   0.42761821  0.80795037  0.11138653
   0.11172360  0.92783835  0.30773086
   0.30752889  0.61122038  0.42803441
   0.05802345  0.67664941  0.86208821
   0.36219505  0.55784991  0.67711878
   0.17719800  0.86220429  0.55770692
   0.42776832  0.80805680  0.61124220
   0.11131300  0.92734835  0.80787157
   0.30708645  0.61136928  0.92809549
   0.55834043  0.17762673  0.36183424
   0.86239006  0.05748726  0.17734050
   0.67766181  0.36217061  0.05756231
   0.92760875  0.30773801  0.11122988
   0.61168147  0.42798714  0.30764935
   0.80785022  0.11135195  0.42797782
   0.55778602  0.17690200  0.86225776
   0.86202728  0.05755799  0.67721259
   0.67733090  0.36230996  0.55772858
   0.92789719  0.30745205  0.61138449
   0.61167870  0.42760977  0.80756776
   0.80745578  0.11090414  0.92806945
   0.55653035  0.67837920  0.36180433
   0.86177753  0.55737492  0.17709001
   0.67762243  0.86218552  0.05677128
   0.92795241  0.80583229  0.11273894
   0.61215013  0.92839537  0.30693215
   0.80600700  0.61250585  0.42769158
   0.55657141  0.67733507  0.86263570
   0.86236992  0.55676619  0.67715068
   0.67751398  0.86131146  0.55779192
   0.92802003  0.80651369  0.61247724
   0.61190851  0.92801783  0.80679453
   0.80702719  0.61246522  0.92679853
   0.24915502  0.25029138  0.24810033
   0.24847142  0.74850160  0.24891959
   0.24796173  0.74791832  0.74975807
   0.74756924  0.24812955  0.24973269
   0.49712913  0.99809784  0.50060028
   0.74876191  0.24874974  0.74873710
Li(NbTa)O_3                             
           1
     5.215549   -3.009149    9.352367
     0.003169    6.020103    9.351185
    -5.211836   -3.010666    9.349811
   Li   Nb   O    Ta
  16  10  48   6
Direct configuration=     5
   0.13828764  0.13933474  0.13984938
   0.39152777  0.38999568  0.39080457
   0.14031397  0.14027334  0.64087229
   0.39178564  0.39092427  0.89061378
   0.14010382  0.63907747  0.13990999
   0.38996022  0.89026222  0.39051073
   0.14030419  0.63855089  0.63938986
   0.39067498  0.89123987  0.89015775
   0.63963956  0.14087151  0.13849448
   0.89087569  0.39195309  0.39134191
   0.64047705  0.13980598  0.63889572
   0.89103888  0.39190917  0.89000053
   0.63981334  0.64046475  0.14006443
   0.88949118  0.89023281  0.39156104
   0.64092874  0.64010425  0.64146773
   0.89106908  0.89084242  0.89130997
   1.00007939  0.00202841  0.99725852
   0.99990349  0.00064999  0.49799652
   0.25230203  0.24936531  0.75004244
   0.99800580  0.49835557  0.00143104
   0.00112367  0.49760186  0.50132415
   0.50034172  0.99791072  0.00144859
   0.50002541  0.50049366  0.99839128
   0.75144942  0.74999764  0.25039457
   0.50033410  0.50180287  0.49703075
   0.74995485  0.75152395  0.74842467
   0.05800821  0.17772810  0.36194480
   0.36190825  0.05787789  0.17804304
   0.17727423  0.36163574  0.05833806
   0.42802063  0.30717520  0.11163279
   0.11094375  0.42846470  0.30707307
   0.30808116  0.11163896  0.42801378
   0.05661325  0.17799767  0.86198222
   0.36096438  0.05780671  0.67846098
   0.17813795  0.36222072  0.55689626
   0.42838420  0.30644671  0.61263926
   0.11230614  0.42728763  0.80671251
   0.30649469  0.11233335  0.92849565
   0.05794898  0.67740943  0.36207190
   0.36190377  0.55807373  0.17737049
   0.17700965  0.86229615  0.05804480
   0.42745835  0.80824479  0.11128973
   0.11161912  0.92771080  0.30802686
   0.30781130  0.61111233  0.42790369
   0.05834105  0.67645317  0.86201163
   0.36211002  0.55815624  0.67693560
   0.17705153  0.86211895  0.55799843
   0.42759393  0.80836484  0.61113228
   0.11121549  0.92719696  0.80816221
   0.30735662  0.61128046  0.92794507
   0.55863823  0.17744357  0.36174534
   0.86229651  0.05778330  0.17717019
   0.67750032  0.36207551  0.05787000
   0.92742190  0.30800231  0.11115869
   0.61157349  0.42783440  0.30795382
   0.80812769  0.11126284  0.42783435
   0.55806688  0.17673582  0.86217379
   0.86195340  0.05785290  0.67701803
   0.67714971  0.36224442  0.55801483
   0.92775228  0.30773428  0.61127606
   0.61155838  0.42747942  0.80786932
   0.80773683  0.11079073  0.92794471
   0.55679303  0.67828732  0.36169145
   0.86167172  0.55765769  0.17699486
   0.67753016  0.86206237  0.05707416
   0.92790242  0.80611558  0.11259579
   0.61201158  0.92832005  0.30723606
   0.80626650  0.61237276  0.42765473
   0.55682129  0.67719854  0.86255001
   0.86227152  0.55702613  0.67704128
   0.67732393  0.86123029  0.55806388
   0.92795088  0.80681393  0.61234062
   0.61177441  0.92794199  0.80708662
   0.80730522  0.61237610  0.92667143
   0.24910747  0.25020862  0.24804499
   0.24844048  0.74846827  0.24887863
   0.24790622  0.74787769  0.74971002
   0.74756777  0.24810079  0.24967730
   0.49713387  0.99807548  0.50051150
   0.74873281  0.24871122  0.74869013
Li(NbTa)O_3                             
           1
     5.216766   -3.009745    9.348095
     0.003216    6.021543    9.346968
    -5.213009   -3.011289    9.345507
   Li   Nb   O    Ta
  16  10  48   6
Direct configuration=     6
   0.13826034  0.13932805  0.13985401
   0.39155730  0.38999493  0.39079557
   0.14032424  0.14025777  0.64086829
   0.39180607  0.39094898  0.89062415
   0.14012601  0.63905484  0.13990378
   0.38995384  0.89026819  0.39053661
   0.14031942  0.63854922  0.63937247
   0.39068068  0.89124854  0.89014986
   0.63962840  0.14089759  0.13848501
   0.89089561  0.39194655  0.39136603
   0.64049034  0.13980833  0.63886805
   0.89104047  0.39191112  0.89002525
   0.63979015  0.64044952  0.14007650
   0.88947986  0.89025422  0.39157517
   0.64091437  0.64011410  0.64148506
   0.89108919  0.89087320  0.89130266
   1.00004838  0.00196840  0.99724518
   0.99989300  0.00062329  0.49795446
   0.25227972  0.24928327  0.74997777
   0.99805252  0.49829605  0.00141408
   0.00112382  0.49757101  0.50124272
   0.50025038  0.99792705  0.00141814
   0.49998159  0.50041239  0.99840678
   0.75133895  0.75000652  0.25038328
   0.50029492  0.50172539  0.49703289
   0.74989781  0.75152171  0.74838726
   0.05837963  0.17745266  0.36188898
   0.36187582  0.05820436  0.17778055
   0.17695285  0.36159590  0.05869748
   0.42778999  0.30750360  0.11155369
   0.11086080  0.42823259  0.30741603
   0.30844107  0.11158601  0.42773022
   0.05694293  0.17777602  0.86191248
   0.36086861  0.05817482  0.67823677
   0.17791039  0.36215892  0.55721438
   0.42818292  0.30675072  0.61258911
   0.11224911  0.42707440  0.80702642
   0.30681785  0.11226177  0.92829395
   0.05829345  0.67712178  0.36202326
   0.36183715  0.55844100  0.17708603
   0.17672235  0.86225717  0.05839994
   0.42719948  0.80860547  0.11122044
   0.11155013  0.92746289  0.30837777
   0.30814759  0.61104475  0.42764938
   0.05868544  0.67611494  0.86200032
   0.36205881  0.55851969  0.67663558
   0.17673964  0.86209798  0.55833392
   0.42728072  0.80873903  0.61107295
   0.11113890  0.92693513  0.80852156
   0.30770315  0.61120467  0.92769248
   0.55901460  0.17715449  0.36168044
   0.86224456  0.05813440  0.17688508
   0.67719894  0.36203979  0.05822170
   0.92716013  0.30836523  0.11108282
   0.61149558  0.42757849  0.30832399
   0.80849407  0.11117693  0.42759949
   0.55840614  0.17644104  0.86213633
   0.86190189  0.05821814  0.67670946
   0.67685633  0.36221068  0.55836863
   0.92749728  0.30808640  0.61119773
   0.61148723  0.42721654  0.80821804
   0.80807428  0.11071911  0.92768869
   0.55713286  0.67807146  0.36161046
   0.86162123  0.55799392  0.17673615
   0.67729996  0.86198663  0.05741574
   0.92767730  0.80641215  0.11255285
   0.61198933  0.92804826  0.30753905
   0.80657917  0.61231667  0.42743022
   0.55716526  0.67696112  0.86247509
   0.86222755  0.55734160  0.67680175
   0.67709315  0.86112443  0.55843065
   0.92770501  0.80713126  0.61229176
   0.61173643  0.92768970  0.80740140
   0.80763858  0.61234092  0.92640011
   0.24909472  0.25012239  0.24806407
   0.24844854  0.74845862  0.24884817
   0.24793861  0.74790683  0.74963513
   0.74752005  0.24809198  0.24966795
   0.49708160  0.99808989  0.50046763
   0.74872869  0.24870242  0.74866912
Li(NbTa)O_3                             
           1
     5.221821   -3.012506    9.330172
     0.003183    6.027460    9.329194
    -5.217966   -3.013956    9.327567
   Li   Nb   O    Ta
  16  10  48   6
Direct configuration=     7
   0.13813757  0.13930729  0.13986942
   0.39167054  0.39000624  0.39076510
   0.14034705  0.14020621  0.64086937
   0.39189135  0.39105812  0.89066464
   0.14020553  0.63896801  0.13988107
   0.38993603  0.89027382  0.39063693
   0.14036581  0.63853682  0.63932127
   0.39071643  0.89127188  0.89012709
   0.63959569  0.14100228  0.13843621
   0.89097315  0.39193818  0.39145826
   0.64055486  0.13981004  0.63876206
   0.89105679  0.39194005  0.89011843
   0.63971976  0.64039281  0.14011389
   0.88943931  0.89033516  0.39164523
   0.64088177  0.64014417  0.64156321
   0.89116641  0.89098550  0.89128839
   0.99991405  0.00173542  0.99720548
   0.99976160  0.00048009  0.49783302
   0.25209200  0.24911538  0.74980710
   0.99806882  0.49816636  0.00130690
   0.00100309  0.49752896  0.50101169
   0.50004308  0.99790357  0.00124227
   0.49981554  0.50023480  0.99835465
   0.75105323  0.74989042  0.25027595
   0.50016589  0.50149305  0.49699351
   0.74974692  0.75138216  0.74831900
   0.05992102  0.17635974  0.36163749
   0.36170777  0.05955398  0.17677108
   0.17579700  0.36132646  0.06020464
   0.42682250  0.30880741  0.11127459
   0.11060101  0.42721522  0.30876289
   0.30991892  0.11133098  0.42662977
   0.05828132  0.17682579  0.86164581
   0.36053373  0.05961290  0.67726659
   0.17702474  0.36188441  0.55849209
   0.42732638  0.30795195  0.61241750
   0.11213203  0.42607310  0.80823695
   0.30810474  0.11200678  0.92742626
   0.05969876  0.67596768  0.36182427
   0.36157891  0.55991189  0.17594772
   0.17557664  0.86211214  0.05981740
   0.42615274  0.81004175  0.11095731
   0.11129768  0.92645481  0.30976776
   0.30949252  0.61077635  0.42663514
   0.06014353  0.67482660  0.86189362
   0.36184594  0.55999745  0.67544009
   0.17557214  0.86196871  0.55970271
   0.42609692  0.81028723  0.61076844
   0.11084200  0.92589980  0.80993741
   0.30909455  0.61093385  0.92663058
   0.56049231  0.17596957  0.36145888
   0.86201911  0.05955964  0.17574315
   0.67598549  0.36187491  0.05967261
   0.92603546  0.30976362  0.11084441
   0.61118297  0.42653036  0.30980274
   0.80992340  0.11088718  0.42660103
   0.55976236  0.17528223  0.86198131
   0.86168970  0.05970972  0.67547557
   0.67568780  0.36207212  0.55979616
   0.92647881  0.30946007  0.61090472
   0.61120473  0.42616206  0.80961567
   0.80941331  0.11043536  0.92666974
   0.55846047  0.67714074  0.36134311
   0.86141921  0.55934294  0.17570841
   0.67628221  0.86175772  0.05876837
   0.92673619  0.80763341  0.11239340
   0.61179096  0.92706958  0.30881721
   0.80783484  0.61211028  0.42649439
   0.55850553  0.67592235  0.86224131
   0.86210961  0.55858568  0.67575363
   0.67602454  0.86081596  0.55982811
   0.92672587  0.80843055  0.61207461
   0.61152661  0.92672469  0.80868956
   0.80895053  0.61222234  0.92528683
   0.24896037  0.24992882  0.24803951
   0.24843135  0.74842049  0.24874397
   0.24792396  0.74789436  0.74947601
   0.74747740  0.24804890  0.24958122
   0.49703376  0.99805411  0.50032720
   0.74870056  0.24864445  0.74856330
Li(NbTa)O_3                             
           1
     5.226759   -3.015458    9.312429
     0.003020    6.033254    9.311510
    -5.222884   -3.016708    9.309885
   Li   Nb   O    Ta
  16  10  48   6
Direct configuration=     8
   0.13802820  0.13928721  0.13987846
   0.39177379  0.39002142  0.39074707
   0.14037129  0.14016882  0.64087499
   0.39198419  0.39116481  0.89070698
   0.14027416  0.63888650  0.13986728
   0.38992742  0.89028017  0.39072732
   0.14040886  0.63852001  0.63927931
   0.39075643  0.89130085  0.89010500
   0.63956408  0.14110516  0.13838916
   0.89105358  0.39194044  0.39154889
   0.64061449  0.13981355  0.63866917
   0.89108480  0.39197355  0.89019902
   0.63966021  0.64035131  0.14014884
   0.88940397  0.89040938  0.39172046
   0.64086715  0.64017204  0.64163967
   0.89123212  0.89109504  0.89129132
   0.99978985  0.00155625  0.99714604
   0.99963905  0.00034560  0.49771991
   0.25194167  0.24898915  0.74967511
   0.99801718  0.49807625  0.00118517
   0.00090324  0.49746513  0.50083741
   0.49988069  0.99787415  0.00109064
   0.49965143  0.50010401  0.99827594
   0.75083822  0.74977827  0.25016017
   0.50005266  0.50132286  0.49693173
   0.74960819  0.75124117  0.74825768
   0.06130135  0.17533217  0.36143676
   0.36157241  0.06076569  0.17583576
   0.17477007  0.36107267  0.06155895
   0.42593545  0.31000893  0.11101628
   0.11036809  0.42628393  0.30998324
   0.31123781  0.11111574  0.42564606
   0.05949817  0.17589485  0.86143471
   0.36026632  0.06088753  0.67635055
   0.17618604  0.36165104  0.55964750
   0.42649700  0.30904852  0.61228533
   0.11202045  0.42514666  0.80936093
   0.30925702  0.11180702  0.92658097
   0.06098657  0.67494380  0.36162535
   0.36134285  0.56125108  0.17491258
   0.17453289  0.86198362  0.06111198
   0.42520712  0.81132390  0.11072904
   0.11107687  0.92554050  0.31101573
   0.31071380  0.61052851  0.42572212
   0.06150009  0.67368911  0.86177052
   0.36163880  0.56136244  0.67436728
   0.17453309  0.86182148  0.56098839
   0.42503370  0.81167428  0.61049966
   0.11056510  0.92496640  0.81122524
   0.31035483  0.61068861  0.92566489
   0.56182159  0.17491969  0.36126355
   0.86180662  0.06087349  0.17471384
   0.67489788  0.36170425  0.06102350
   0.92504000  0.31103631  0.11060957
   0.61090997  0.42557045  0.31112799
   0.81120322  0.11065209  0.42566345
   0.56102347  0.17425950  0.86181585
   0.86147908  0.06108928  0.67437070
   0.67462899  0.36194193  0.56110466
   0.92556314  0.31069741  0.61063901
   0.61094764  0.42521040  0.81088878
   0.81063469  0.11016139  0.92575710
   0.55966481  0.67623677  0.36112644
   0.86124034  0.56056845  0.17476383
   0.67532445  0.86155987  0.06000818
   0.92583117  0.80876678  0.11225947
   0.61161339  0.92617070  0.30998811
   0.80898330  0.61192878  0.42561131
   0.55974261  0.67495652  0.86202610
   0.86199614  0.55973411  0.67479608
   0.67506774  0.86052165  0.56110503
   0.92582441  0.80962797  0.61186330
   0.61133581  0.92583197  0.80985668
   0.81016090  0.61209311  0.92429520
   0.24886305  0.24975971  0.24800354
   0.24838451  0.74837010  0.24864440
   0.24786690  0.74784794  0.74933239
   0.74744056  0.24797570  0.24948950
   0.49698992  0.99801972  0.50019671
   0.74864606  0.24857036  0.74846759
Li(NbTa)O_3                             
           1
     5.227818   -3.016186    9.308419
     0.002940    6.034506    9.307478
    -5.224042   -3.017401    9.305943
   Li   Nb   O    Ta
  16  10  48   6
Direct configuration=     9
   0.13801282  0.13928484  0.13987529
   0.39179265  0.39002971  0.39075320
   0.14037966  0.14017091  0.64088170
   0.39201331  0.39119095  0.89072009
   0.14028256  0.63887094  0.13987170
   0.38993441  0.89028230  0.39074343
   0.14041862  0.63851270  0.63927548
   0.39077004  0.89131440  0.89009983
   0.63955833  0.14113015  0.13837888
   0.89107742  0.39195106  0.39157098
   0.64062575  0.13981750  0.63865625
   0.89110134  0.39198487  0.89020986
   0.63965346  0.64035397  0.14015767
   0.88939996  0.89042236  0.39174419
   0.64087918  0.64017848  0.64165630
   0.89124014  0.89112227  0.89130695
   0.99976998  0.00154713  0.99711969
   0.99962349  0.00031618  0.49770627
   0.25193421  0.24898910  0.74966699
   0.99796938  0.49807204  0.00115718
   0.00089432  0.49743510  0.50083514
   0.49987695  0.99786077  0.00107511
   0.49962214  0.50009920  0.99824473
   0.75083994  0.74975813  0.25013663
   0.50003826  0.50132297  0.49690443
   0.74958503  0.75121640  0.74824017
   0.06149758  0.17512887  0.36143520
   0.36157303  0.06094056  0.17566728
   0.17460704  0.36103598  0.06175366
   0.42578325  0.31021716  0.11097735
   0.11033578  0.42612842  0.31017410
   0.31142157  0.11110145  0.42549139
   0.05970121  0.17570228  0.86142015
   0.36025628  0.06106488  0.67617654
   0.17602337  0.36162472  0.55983295
   0.42632930  0.30922824  0.61228220
   0.11199181  0.42499137  0.80956365
   0.30943127  0.11179305  0.92641095
   0.06119042  0.67479663  0.36158786
   0.36130884  0.56146452  0.17473841
   0.17436191  0.86196813  0.06132077
   0.42505681  0.81150545  0.11070173
   0.11104910  0.92539298  0.31119898
   0.31090762  0.61048880  0.42557445
   0.06172886  0.67353032  0.86173391
   0.36159956  0.56159112  0.67419961
   0.17437295  0.86178188  0.56121856
   0.42486500  0.81186681  0.61047131
   0.11052478  0.92480885  0.81142884
   0.31055869  0.61065275  0.92550521
   0.56201252  0.17477352  0.36124230
   0.86176300  0.06109390  0.17456039
   0.67472040  0.36167437  0.06125297
   0.92490031  0.31124115  0.11055727
   0.61088103  0.42540190  0.31132286
   0.81139314  0.11063217  0.42549334
   0.56124239  0.17411597  0.86177211
   0.86143420  0.06132122  0.67420259
   0.67445884  0.36192070  0.56131787
   0.92541675  0.31088774  0.61059952
   0.61091248  0.42505448  0.81109443
   0.81083004  0.11011098  0.92561303
   0.55985760  0.67605172  0.36110952
   0.86121540  0.56077069  0.17459144
   0.67514190  0.86153766  0.06021648
   0.92565049  0.80896521  0.11224899
   0.61159279  0.92601499  0.31017360
   0.80917495  0.61190876  0.42544162
   0.55996562  0.67478911  0.86198271
   0.86196688  0.55994223  0.67464380
   0.67492176  0.86046754  0.56131409
   0.92565947  0.80983694  0.61182557
   0.61131044  0.92567028  0.81004078
   0.81038021  0.61204240  0.92415468
   0.24886688  0.24974698  0.24798421
   0.24835321  0.74834805  0.24863179
   0.24782385  0.74782491  0.74931940
   0.74743185  0.24794919  0.24945889
   0.49698656  0.99800531  0.50018071
   0.74862082  0.24854832  0.74845426
Li(NbTa)O_3                             
           1
     5.229024   -3.016984    9.303830
     0.002886    6.035956    9.302873
    -5.225371   -3.018208    9.301422
   Li   Nb   O    Ta
  16  10  48   6
Direct configuration=    10
   0.13799904  0.13928507  0.13986850
   0.39181585  0.39004365  0.39076688